ITEM: TIMESTEP
0
ITEM: NUMBER OF ATOMS
8531
ITEM: BOX BOUNDS ff ff ff
-1.0000000000000000e+01 9.8000000000000000e+01
-1.0000000000000000e+01 9.8000000000000000e+01
-1.0000000000000000e+01 9.5000000000000000e+01
ITEM: ATOMS id type xs ys zs fx fy fz c_stress[1] c_stress[2] c_stress[3] c_stress[4] c_stress[5] c_stress[6] v_average_stress v_total_stress
477 1 0.30537 0.198981 0.271952 -0.00754259 -0.00754259 -0.439961 544700 544700 -665110 -467606 -403975 -403975 505011 3.03007e+06
2672 1 0.323102 0.18125 0.271952 -0.00754259 -0.00754259 -0.439961 544700 544700 -665110 -467606 -403975 -403975 505011 3.03007e+06
4814 2 0.323102 0.198981 0.254281 -0.105309 -0.105309 -0.240471 751313 751313 -162523 -538124 -212779 -212779 438138 2.62883e+06
471 1 0.30537 0.163519 0.307295 -0.00754259 -0.00754259 -0.439961 544700 544700 -665110 -467606 -403975 -403975 505011 3.03007e+06
2666 1 0.323102 0.145787 0.307295 -0.00754259 -0.00754259 -0.439961 544700 544700 -665110 -467606 -403975 -403975 505011 3.03007e+06
4807 2 0.323102 0.163519 0.289624 -0.105309 -0.105309 -0.240471 751313 751313 -162523 -538124 -212779 -212779 438138 2.62883e+06
327 1 0.269907 0.198981 0.307295 -0.00754259 -0.00754259 -0.439961 544700 544700 -665110 -467606 -403975 -403975 505011 3.03007e+06
2507 1 0.287639 0.18125 0.307295 -0.00754259 -0.00754259 -0.439961 544700 544700 -665110 -467606 -403975 -403975 505011 3.03007e+06
4647 2 0.287639 0.198981 0.289624 -0.105309 -0.105309 -0.240471 751313 751313 -162523 -538124 -212779 -212779 438138 2.62883e+06
478 1 0.30537 0.198981 0.307295 -0.153454 -0.153454 -0.264687 -629927 -629927 -2.16265e+06 77706.2 218955 218955 656354 3.93812e+06
2673 1 0.323102 0.18125 0.307295 -0.153454 -0.153454 -0.264687 -629927 -629927 -2.16265e+06 77706.2 218955 218955 656354 3.93812e+06
4815 2 0.323102 0.198981 0.289624 -0.024516 -0.024516 0.116927 -1.02798e+06 -1.02798e+06 -2.66806e+06 157493 -40501.9 -40501.9 827088 4.96253e+06
6873 2 0.30537 0.18125 0.289624 -0.105309 -0.105309 -0.240471 751313 751313 -162523 -538124 -212779 -212779 438138 2.62883e+06
467 1 0.30537 0.128056 0.342638 -0.00754259 -0.00754259 -0.439961 544700 544700 -665110 -467606 -403975 -403975 505011 3.03007e+06
2662 1 0.323102 0.110324 0.342638 0.0149984 -0.148176 -0.302814 557179 760485 -507960 -521692 -369175 -578010 549084 3.2945e+06
4802 2 0.323102 0.128056 0.324967 -0.105309 -0.105309 -0.240471 751313 751313 -162523 -538124 -212779 -212779 438138 2.62883e+06
323 1 0.269907 0.163519 0.342638 -0.00754259 -0.00754259 -0.439961 544700 544700 -665110 -467606 -403975 -403975 505011 3.03007e+06
2503 1 0.287639 0.145787 0.342638 -0.00754259 -0.00754259 -0.439961 544700 544700 -665110 -467606 -403975 -403975 505011 3.03007e+06
4642 2 0.287639 0.163519 0.324967 -0.105309 -0.105309 -0.240471 751313 751313 -162523 -538124 -212779 -212779 438138 2.62883e+06
472 1 0.30537 0.163519 0.342638 -0.153454 -0.153454 -0.264687 -629927 -629927 -2.16265e+06 77706.2 218955 218955 656354 3.93812e+06
2667 1 0.323102 0.145787 0.342638 -0.153454 -0.153454 -0.264687 -629927 -629927 -2.16265e+06 77706.2 218955 218955 656354 3.93812e+06
4808 2 0.323102 0.163519 0.324967 -0.024516 -0.024516 0.116927 -1.02798e+06 -1.02798e+06 -2.66806e+06 157493 -40501.9 -40501.9 827088 4.96253e+06
6868 2 0.30537 0.145787 0.324967 -0.105309 -0.105309 -0.240471 751313 751313 -162523 -538124 -212779 -212779 438138 2.62883e+06
211 1 0.234444 0.198981 0.342638 -0.00754259 -0.00754259 -0.439961 544700 544700 -665110 -467606 -403975 -403975 505011 3.03007e+06
328 1 0.269907 0.198981 0.342638 -0.153454 -0.153454 -0.264687 -629927 -629927 -2.16265e+06 77706.2 218955 218955 656354 3.93812e+06
2375 1 0.252176 0.18125 0.342638 -0.00754259 -0.00754259 -0.439961 544700 544700 -665110 -467606 -403975 -403975 505011 3.03007e+06
4514 2 0.252176 0.198981 0.324967 -0.105309 -0.105309 -0.240471 751313 751313 -162523 -538124 -212779 -212779 438138 2.62883e+06
6724 2 0.269907 0.18125 0.324967 -0.105309 -0.105309 -0.240471 751313 751313 -162523 -538124 -212779 -212779 438138 2.62883e+06
2508 1 0.287639 0.18125 0.342638 -0.153454 -0.153454 -0.264687 -629927 -629927 -2.16265e+06 77706.2 218955 218955 656354 3.93812e+06
4648 2 0.287639 0.198981 0.324967 -0.024516 -0.024516 0.116927 -1.02798e+06 -1.02798e+06 -2.66806e+06 157493 -40501.9 -40501.9 827088 4.96253e+06
479 1 0.30537 0.198981 0.342638 -1.74507e-15 -1.17961e-14 -2.60902e-15 -832486 -832486 -2.45984e+06 2.60176e-11 -2.22346e-10 -4.44693e-10 687469 4.12481e+06
2674 1 0.323102 0.18125 0.342638 1.91513e-15 1.20737e-14 -2.44249e-15 -832486 -832486 -2.45984e+06 -3.11285e-10 -8.89387e-11 -1.14212e-10 687469 4.12481e+06
4816 2 0.323102 0.198981 0.324967 2.9976e-15 -1.41762e-14 -2.83662e-14 -952093 -952093 -2.46432e+06 2.22347e-11 -4.89163e-10 -5.47445e-10 728084 4.36851e+06
6874 2 0.30537 0.18125 0.324967 -0.024516 -0.024516 0.116927 -1.02798e+06 -1.02798e+06 -2.66806e+06 157493 -40501.9 -40501.9 827088 4.96253e+06
4799 2 0.323102 0.0925926 0.36031 -0.0564327 0.268129 -0.0409962 1.45476e+06 856078 963323 -297760 -312690 -267924 692089 4.15253e+06
4639 2 0.287639 0.128056 0.36031 -0.105309 -0.105309 -0.240471 751313 751313 -162523 -538124 -212779 -212779 438138 2.62883e+06
4803 2 0.323102 0.128056 0.36031 -0.024516 -0.0245143 0.116916 -1.02798e+06 -1.02799e+06 -2.66808e+06 157493 -40501.9 -40492 827089 4.96254e+06
6865 2 0.30537 0.110324 0.36031 -0.0214614 -0.0631758 -0.336146 830002 687095 -326072 -625944 -177672 -84992.7 455296 2.73178e+06
4511 2 0.252176 0.163519 0.36031 -0.105309 -0.105309 -0.240471 751313 751313 -162523 -538124 -212779 -212779 438138 2.62883e+06
6721 2 0.269907 0.145787 0.36031 -0.105309 -0.105309 -0.240471 751313 751313 -162523 -538124 -212779 -212779 438138 2.62883e+06
4643 2 0.287639 0.163519 0.36031 -0.024516 -0.024516 0.116927 -1.02798e+06 -1.02798e+06 -2.66806e+06 157493 -40501.9 -40501.9 827088 4.96253e+06
4809 2 0.323102 0.163519 0.36031 1.9984e-15 -6.9042e-15 1.36002e-15 -952093 -952093 -2.46432e+06 5.11397e-10 -4.00224e-10 -2.53565e-10 728084 4.36851e+06
6869 2 0.30537 0.145787 0.36031 -0.024516 -0.024516 0.116927 -1.02798e+06 -1.02798e+06 -2.66806e+06 157493 -40501.9 -40501.9 827088 4.96253e+06
4413 2 0.216713 0.198981 0.36031 -0.105309 -0.105309 -0.240471 751313 751313 -162523 -538124 -212779 -212779 438138 2.62883e+06
6608 2 0.234444 0.18125 0.36031 -0.105309 -0.105309 -0.240471 751313 751313 -162523 -538124 -212779 -212779 438138 2.62883e+06
4515 2 0.252176 0.198981 0.36031 -0.024516 -0.024516 0.116927 -1.02798e+06 -1.02798e+06 -2.66806e+06 157493 -40501.9 -40501.9 827088 4.96253e+06
6725 2 0.269907 0.18125 0.36031 -0.024516 -0.024516 0.116927 -1.02798e+06 -1.02798e+06 -2.66806e+06 157493 -40501.9 -40501.9 827088 4.96253e+06
4649 2 0.287639 0.198981 0.36031 -2.88014e-14 -1.4988e-14 1.85962e-15 -952093 -952093 -2.46432e+06 -5.51721e-10 -7.84409e-10 8.89387e-11 728084 4.36851e+06
4817 2 0.323102 0.198981 0.36031 3.13638e-15 -1.4877e-14 1.52656e-15 -952093 -952093 -2.46432e+06 8.78269e-10 3.55755e-10 1.64497e-10 728084 4.36851e+06
6875 2 0.30537 0.18125 0.36031 -2.83108e-15 1.51544e-14 1.08163e-15 -952093 -952093 -2.46432e+06 -2.22718e-10 -1.44757e-14 -4.45634e-11 728084 4.36851e+06
4638 2 0.287639 0.0925926 0.395652 0.140611 0.589015 -1.27116e-14 1.47484e+06 1.1587e+06 1.24765e+06 -517245 -8.93761e-09 -1.1062e-08 733071 4.39843e+06
465 1 0.30537 0.0925926 0.377981 -0.106993 0.531428 -0.11972 1.26746e+06 381458 85713.1 -44854 -563246 -208313 425175 2.55105e+06
4800 2 0.323102 0.0925926 0.395652 0.194568 -0.1127 -2.01644e-14 708277 484388 149998 -9622.5 3.55755e-10 -1.23402e-08 225381 1.35229e+06
321 1 0.269907 0.128056 0.377981 -0.108878 -0.108878 -0.293329 647956 647956 -448444 -414898 -535739 -535739 538455 3.23073e+06
4510 2 0.252176 0.128056 0.395652 0.18975 0.18975 -1.32119e-14 1.31759e+06 1.31759e+06 663155 -984295 -9.7671e-09 -1.10286e-08 713770 4.28262e+06
6720 2 0.269907 0.110324 0.395652 0.22609 0.207833 -1.42389e-14 1.37333e+06 1.28985e+06 663155 -998299 -1.09462e-08 -1.14731e-08 720772 4.32463e+06
2501 1 0.287639 0.110324 0.377981 -0.0614265 -0.218572 -0.194531 660434 816276 -348294 -488091 -482426 -657366 575481 3.45289e+06
4640 2 0.287639 0.128056 0.395652 0.0305313 0.0305313 -3.2664e-14 -1.22593e+06 -1.22593e+06 -2.8718e+06 192930 1.73445e-09 5.8853e-10 919433 5.5166e+06
468 1 0.30537 0.128056 0.377981 -0.153456 -0.153021 -0.264683 -629855 -631723 -2.16186e+06 77703.8 218955 218948 656507 3.93904e+06
2663 1 0.323102 0.110324 0.377981 -0.158622 -0.688325 -0.167133 -591045 191097 -1.80613e+06 67260.8 183651 92382.6 488594 2.93156e+06
4804 2 0.323102 0.128056 0.395652 2.498e-15 3.41792e-06 -3.13083e-14 -952093 -952098 -2.46435e+06 -2.22347e-11 -1.33408e-10 4.78942e-11 728091 4.36854e+06
6866 2 0.30537 0.110324 0.395652 0.0758797 -0.363528 -3.1666e-14 -1.00905e+06 -620034 -2.89002e+06 167644 4.44287e-10 2.22289e-10 781124 4.68675e+06
209 1 0.234444 0.163519 0.377981 -0.108878 -0.108878 -0.293329 647956 647956 -448444 -414898 -535739 -535739 538455 3.23073e+06
4412 2 0.216713 0.163519 0.395652 0.18975 0.18975 -1.16437e-14 1.31759e+06 1.31759e+06 663155 -984295 -8.98888e-09 -9.38329e-09 713770 4.28262e+06
6607 2 0.234444 0.145787 0.395652 0.18975 0.18975 -1.31009e-14 1.31759e+06 1.31759e+06 663155 -984295 -9.44598e-09 -1.10951e-08 713770 4.28262e+06
324 1 0.269907 0.163519 0.377981 -0.153454 -0.153454 -0.264687 -629927 -629927 -2.16265e+06 77706.2 218955 218955 656354 3.93812e+06
2373 1 0.252176 0.145787 0.377981 -0.108878 -0.108878 -0.293329 647956 647956 -448444 -414898 -535739 -535739 538455 3.23073e+06
4512 2 0.252176 0.163519 0.395652 0.0305313 0.0305313 -3.03809e-14 -1.22593e+06 -1.22593e+06 -2.8718e+06 192930 2.2164e-10 2.17921e-09 919433 5.5166e+06
6722 2 0.269907 0.145787 0.395652 0.0305313 0.0305313 -3.24421e-14 -1.22593e+06 -1.22593e+06 -2.8718e+06 192930 -1.14701e-09 7.55968e-10 919433 5.5166e+06
2504 1 0.287639 0.145787 0.377981 -0.153454 -0.153454 -0.264687 -629927 -629927 -2.16265e+06 77706.2 218955 218955 656354 3.93812e+06
4644 2 0.287639 0.163519 0.395652 -2.83335e-14 -8.33239e-15 -3.06909e-14 -952093 -952093 -2.46432e+06 -1.56153e-09 8.45294e-10 1.82174e-09 728084 4.36851e+06
473 1 0.30537 0.163519 0.377981 -1.82506e-15 -6.48444e-15 3.0952e-14 -832486 -832486 -2.45984e+06 -4.37964e-11 4.27817e-10 -2.13451e-09 687469 4.12481e+06
2668 1 0.323102 0.145787 0.377981 1.69309e-15 5.78895e-08 3.23352e-14 -832486 -832486 -2.45984e+06 -1.55643e-10 2.22347e-10 1.55035e-10 687469 4.12481e+06
4810 2 0.323102 0.163519 0.395652 2.22045e-15 -9.04832e-15 -3.0087e-14 -952093 -952093 -2.46432e+06 2.55699e-10 1.33408e-10 1.83243e-09 728084 4.36851e+06
6870 2 0.30537 0.145787 0.395652 -2.08147e-15 -8.88165e-16 -3.15598e-14 -952093 -952093 -2.46432e+06 8.95294e-11 2.22502e-10 -2.66802e-10 728084 4.36851e+06
4340 2 0.18125 0.198981 0.395652 0.18975 0.18975 -1.16712e-14 1.31759e+06 1.31759e+06 663155 -984295 -9.02641e-09 -9.36079e-09 713770 4.28262e+06
125 1 0.198981 0.198981 0.377981 -0.108878 -0.108878 -0.293329 647956 647956 -448444 -414898 -535739 -535739 538455 3.23073e+06
6522 2 0.198981 0.18125 0.395652 0.18975 0.18975 -1.16576e-14 1.31759e+06 1.31759e+06 663155 -984295 -9.26951e-09 -9.04951e-09 713770 4.28262e+06
212 1 0.234444 0.198981 0.377981 -0.153454 -0.153454 -0.264687 -629927 -629927 -2.16265e+06 77706.2 218955 218955 656354 3.93812e+06
2275 1 0.216713 0.18125 0.377981 -0.108878 -0.108878 -0.293329 647956 647956 -448444 -414898 -535739 -535739 538455 3.23073e+06
4414 2 0.216713 0.198981 0.395652 0.0305313 0.0305313 -2.78944e-14 -1.22593e+06 -1.22593e+06 -2.8718e+06 192930 7.49487e-10 -3.55755e-10 919433 5.5166e+06
6609 2 0.234444 0.18125 0.395652 0.0305313 0.0305313 -2.77208e-14 -1.22593e+06 -1.22593e+06 -2.8718e+06 192930 -4.6932e-10 7.5604e-10 919433 5.5166e+06
329 1 0.269907 0.198981 0.377981 1.97989e-14 -1.07692e-14 2.96152e-14 -832486 -832486 -2.45984e+06 6.69472e-10 1.12009e-09 1.77877e-10 687469 4.12481e+06
2376 1 0.252176 0.18125 0.377981 -0.153454 -0.153454 -0.264687 -629927 -629927 -2.16265e+06 77706.2 218955 218955 656354 3.93812e+06
4516 2 0.252176 0.198981 0.395652 1.41403e-15 -1.43496e-14 -2.87548e-14 -952093 -952093 -2.46432e+06 -4.6485e-10 -3.56107e-10 -7.11509e-10 728084 4.36851e+06
6726 2 0.269907 0.18125 0.395652 2.9306e-14 1.5099e-14 -2.93004e-14 -952093 -952093 -2.46432e+06 1.16848e-09 -1.50422e-09 4.44614e-10 728084 4.36851e+06
2509 1 0.287639 0.18125 0.377981 -1.99029e-14 1.17548e-14 2.98054e-14 -832486 -832486 -2.45984e+06 3.7799e-10 -1.11936e-09 -4.16882e-10 687469 4.12481e+06
4650 2 0.287639 0.198981 0.395652 -2.96111e-14 -1.44051e-14 -2.94764e-14 -952093 -952093 -2.46432e+06 7.97979e-10 1.47664e-09 -6.6704e-10 728084 4.36851e+06
480 1 0.30537 0.198981 0.377981 -2.34464e-15 -1.12965e-14 2.89768e-14 -832486 -832486 -2.45984e+06 -1.11158e-10 -2.93975e-10 1.11173e-09 687469 4.12481e+06
2675 1 0.323102 0.18125 0.377981 2.33147e-15 1.15186e-14 2.89213e-14 -832486 -832486 -2.45984e+06 1.55643e-10 -0 -1.25356e-09 687469 4.12481e+06
4818 2 0.323102 0.198981 0.395652 3.13638e-15 -1.41762e-14 -2.82829e-14 -952093 -952093 -2.46432e+06 -2.00112e-10 -3.11285e-10 -8.61626e-10 728084 4.36851e+06
6876 2 0.30537 0.18125 0.395652 -2.80446e-15 1.43495e-14 -2.81737e-14 -952093 -952093 -2.46432e+06 -1.26312e-09 3.10426e-10 7.55892e-10 728084 4.36851e+06
466 1 0.30537 0.0925926 0.413324 -0.106993 0.531428 0.11972 1.26746e+06 381458 85713.1 -44854 563246 208313 425175 2.55105e+06
4801 2 0.323102 0.0925926 0.430995 -0.0564327 0.268129 0.0409962 1.45476e+06 856078 963323 -297760 312690 267924 692089 4.15253e+06
322 1 0.269907 0.128056 0.413324 -0.108878 -0.108878 0.293329 647956 647956 -448444 -414898 535739 535739 538455 3.23073e+06
2502 1 0.287639 0.110324 0.413324 -0.0614265 -0.218572 0.194531 660434 816276 -348294 -488091 482426 657366 575481 3.45289e+06
4641 2 0.287639 0.128056 0.430995 -0.105309 -0.105309 0.240471 751313 751313 -162523 -538124 212779 212779 438138 2.62883e+06
469 1 0.30537 0.128056 0.413324 -0.153456 -0.153021 0.264683 -629855 -631723 -2.16186e+06 77703.8 -218955 -218948 656507 3.93904e+06
2664 1 0.323102 0.110324 0.413324 -0.158622 -0.688325 0.167133 -591045 191097 -1.80613e+06 67260.8 -183651 -92382.6 488594 2.93156e+06
4805 2 0.323102 0.128056 0.430995 -0.024516 -0.0245143 -0.116916 -1.02798e+06 -1.02799e+06 -2.66808e+06 157493 40501.9 40492 827089 4.96254e+06
6867 2 0.30537 0.110324 0.430995 -0.0214614 -0.0631758 0.336146 830002 687095 -326072 -625944 177672 84992.7 455296 2.73178e+06
210 1 0.234444 0.163519 0.413324 -0.108878 -0.108878 0.293329 647956 647956 -448444 -414898 535739 535739 538455 3.23073e+06
325 1 0.269907 0.163519 0.413324 -0.153454 -0.153454 0.264687 -629927 -629927 -2.16265e+06 77706.2 -218955 -218955 656354 3.93812e+06
2374 1 0.252176 0.145787 0.413324 -0.108878 -0.108878 0.293329 647956 647956 -448444 -414898 535739 535739 538455 3.23073e+06
4513 2 0.252176 0.163519 0.430995 -0.105309 -0.105309 0.240471 751313 751313 -162523 -538124 212779 212779 438138 2.62883e+06
6723 2 0.269907 0.145787 0.430995 -0.105309 -0.105309 0.240471 751313 751313 -162523 -538124 212779 212779 438138 2.62883e+06
2505 1 0.287639 0.145787 0.413324 -0.153454 -0.153454 0.264687 -629927 -629927 -2.16265e+06 77706.2 -218955 -218955 656354 3.93812e+06
4645 2 0.287639 0.163519 0.430995 -0.024516 -0.024516 -0.116927 -1.02798e+06 -1.02798e+06 -2.66806e+06 157493 40501.9 40501.9 827088 4.96253e+06
474 1 0.30537 0.163519 0.413324 -1.48873e-15 -4.74769e-15 -2.60615e-15 -832486 -832486 -2.45984e+06 -4.30931e-11 -4.00538e-10 3.55733e-10 687469 4.12481e+06
2669 1 0.323102 0.145787 0.413324 1.72085e-15 5.78895e-08 -3.02536e-15 -832486 -832486 -2.45984e+06 -4.44693e-11 -2.66816e-10 -8.75365e-11 687469 4.12481e+06
4811 2 0.323102 0.163519 0.430995 2.05391e-15 -6.93196e-15 1.38778e-16 -952093 -952093 -2.46432e+06 5.78101e-10 -4.44693e-11 8.38428e-11 728084 4.36851e+06
6871 2 0.30537 0.145787 0.430995 -0.024516 -0.024516 -0.116927 -1.02798e+06 -1.02798e+06 -2.66806e+06 157493 40501.9 40501.9 827088 4.96253e+06
126 1 0.198981 0.198981 0.413324 -0.108878 -0.108878 0.293329 647956 647956 -448444 -414898 535739 535739 538455 3.23073e+06
213 1 0.234444 0.198981 0.413324 -0.153454 -0.153454 0.264687 -629927 -629927 -2.16265e+06 77706.2 -218955 -218955 656354 3.93812e+06
2276 1 0.216713 0.18125 0.413324 -0.108878 -0.108878 0.293329 647956 647956 -448444 -414898 535739 535739 538455 3.23073e+06
4415 2 0.216713 0.198981 0.430995 -0.105309 -0.105309 0.240471 751313 751313 -162523 -538124 212779 212779 438138 2.62883e+06
6610 2 0.234444 0.18125 0.430995 -0.105309 -0.105309 0.240471 751313 751313 -162523 -538124 212779 212779 438138 2.62883e+06
330 1 0.269907 0.198981 0.413324 1.88148e-14 -1.15186e-14 -2.10942e-15 -832486 -832486 -2.45984e+06 7.46495e-10 -3.53284e-10 -0 687469 4.12481e+06
2377 1 0.252176 0.18125 0.413324 -0.153454 -0.153454 0.264687 -629927 -629927 -2.16265e+06 77706.2 -218955 -218955 656354 3.93812e+06
4517 2 0.252176 0.198981 0.430995 -0.024516 -0.024516 -0.116927 -1.02798e+06 -1.02798e+06 -2.66806e+06 157493 40501.9 40501.9 827088 4.96253e+06
6727 2 0.269907 0.18125 0.430995 -0.024516 -0.024516 -0.116927 -1.02798e+06 -1.02798e+06 -2.66806e+06 157493 40501.9 40501.9 827088 4.96253e+06
2510 1 0.287639 0.18125 0.413324 -1.91261e-14 1.20194e-14 -2.12265e-15 -832486 -832486 -2.45984e+06 6.67042e-10 3.82562e-12 -1.37386e-10 687469 4.12481e+06
4651 2 0.287639 0.198981 0.430995 -2.87568e-14 -1.52101e-14 -5.55112e-17 -952093 -952093 -2.46432e+06 2.38499e-10 1.80946e-13 4.44693e-11 728084 4.36851e+06
481 1 0.30537 0.198981 0.413324 -2.23079e-15 -1.17684e-14 -2.35922e-15 -832486 -832486 -2.45984e+06 1.12357e-10 1.2968e-10 -3.11285e-10 687469 4.12481e+06
2676 1 0.323102 0.18125 0.413324 2.2482e-15 1.19349e-14 -2.27596e-15 -832486 -832486 -2.45984e+06 4.22459e-10 8.89387e-11 2.4383e-10 687469 4.12481e+06
4819 2 0.323102 0.198981 0.430995 3.33067e-15 -1.4988e-14 0 -952093 -952093 -2.46432e+06 7.33744e-10 -0 -1.05923e-10 728084 4.36851e+06
6877 2 0.30537 0.18125 0.430995 -2.44564e-15 1.51267e-14 5.37493e-17 -952093 -952093 -2.46432e+06 -7.07251e-10 -2.34572e-12 -8.90255e-11 728084 4.36851e+06
470 1 0.30537 0.128056 0.448667 -0.00754259 -0.00754259 0.439961 544700 544700 -665110 -467606 403975 403975 505011 3.03007e+06
2665 1 0.323102 0.110324 0.448667 0.0149984 -0.148176 0.302814 557179 760485 -507960 -521692 369175 578010 549084 3.2945e+06
4806 2 0.323102 0.128056 0.466338 -0.105309 -0.105309 0.240471 751313 751313 -162523 -538124 212779 212779 438138 2.62883e+06
326 1 0.269907 0.163519 0.448667 -0.00754259 -0.00754259 0.439961 544700 544700 -665110 -467606 403975 403975 505011 3.03007e+06
2506 1 0.287639 0.145787 0.448667 -0.00754259 -0.00754259 0.439961 544700 544700 -665110 -467606 403975 403975 505011 3.03007e+06
4646 2 0.287639 0.163519 0.466338 -0.105309 -0.105309 0.240471 751313 751313 -162523 -538124 212779 212779 438138 2.62883e+06
475 1 0.30537 0.163519 0.448667 -0.153454 -0.153454 0.264687 -629927 -629927 -2.16265e+06 77706.2 -218955 -218955 656354 3.93812e+06
2670 1 0.323102 0.145787 0.448667 -0.153454 -0.153454 0.264687 -629927 -629927 -2.16265e+06 77706.2 -218955 -218955 656354 3.93812e+06
4812 2 0.323102 0.163519 0.466338 -0.024516 -0.024516 -0.116927 -1.02798e+06 -1.02798e+06 -2.66806e+06 157493 40501.9 40501.9 827088 4.96253e+06
6872 2 0.30537 0.145787 0.466338 -0.105309 -0.105309 0.240471 751313 751313 -162523 -538124 212779 212779 438138 2.62883e+06
214 1 0.234444 0.198981 0.448667 -0.00754259 -0.00754259 0.439961 544700 544700 -665110 -467606 403975 403975 505011 3.03007e+06
331 1 0.269907 0.198981 0.448667 -0.153454 -0.153454 0.264687 -629927 -629927 -2.16265e+06 77706.2 -218955 -218955 656354 3.93812e+06
2378 1 0.252176 0.18125 0.448667 -0.00754259 -0.00754259 0.439961 544700 544700 -665110 -467606 403975 403975 505011 3.03007e+06
4518 2 0.252176 0.198981 0.466338 -0.105309 -0.105309 0.240471 751313 751313 -162523 -538124 212779 212779 438138 2.62883e+06
6728 2 0.269907 0.18125 0.466338 -0.105309 -0.105309 0.240471 751313 751313 -162523 -538124 212779 212779 438138 2.62883e+06
2511 1 0.287639 0.18125 0.448667 -0.153454 -0.153454 0.264687 -629927 -629927 -2.16265e+06 77706.2 -218955 -218955 656354 3.93812e+06
4652 2 0.287639 0.198981 0.466338 -0.024516 -0.024516 -0.116927 -1.02798e+06 -1.02798e+06 -2.66806e+06 157493 40501.9 40501.9 827088 4.96253e+06
482 1 0.30537 0.198981 0.448667 -2.11977e-15 -1.19349e-14 8.32667e-17 -832486 -832486 -2.45984e+06 1.12357e-10 -3.72757e-12 -4.44693e-11 687469 4.12481e+06
2677 1 0.323102 0.18125 0.448667 2.22045e-15 1.21292e-14 -5.55112e-17 -832486 -832486 -2.45984e+06 4.00224e-10 -0 -1.9251e-11 687469 4.12481e+06
4820 2 0.323102 0.198981 0.466338 3.13638e-15 -1.49325e-14 0 -952093 -952093 -2.46432e+06 7.33744e-10 -2.22347e-10 7.19542e-11 728084 4.36851e+06
6878 2 0.30537 0.18125 0.466338 -0.024516 -0.024516 -0.116927 -1.02798e+06 -1.02798e+06 -2.66806e+06 157493 40501.9 40501.9 827088 4.96253e+06
476 1 0.30537 0.163519 0.48401 -0.00754259 -0.00754259 0.439961 544700 544700 -665110 -467606 403975 403975 505011 3.03007e+06
2671 1 0.323102 0.145787 0.48401 -0.00754259 -0.00754259 0.439961 544700 544700 -665110 -467606 403975 403975 505011 3.03007e+06
332 1 0.269907 0.198981 0.48401 -0.00754259 -0.00754259 0.439961 544700 544700 -665110 -467606 403975 403975 505011 3.03007e+06
2512 1 0.287639 0.18125 0.48401 -0.00754259 -0.00754259 0.439961 544700 544700 -665110 -467606 403975 403975 505011 3.03007e+06
483 1 0.30537 0.198981 0.48401 -0.153454 -0.153454 0.264687 -629927 -629927 -2.16265e+06 77706.2 -218955 -218955 656354 3.93812e+06
2678 1 0.323102 0.18125 0.48401 -0.153454 -0.153454 0.264687 -629927 -629927 -2.16265e+06 77706.2 -218955 -218955 656354 3.93812e+06
4813 2 0.323102 0.163519 0.501681 -0.105309 -0.105309 0.240471 751313 751313 -162523 -538124 212779 212779 438138 2.62883e+06
4653 2 0.287639 0.198981 0.501681 -0.105309 -0.105309 0.240471 751313 751313 -162523 -538124 212779 212779 438138 2.62883e+06
484 1 0.30537 0.198981 0.519352 -0.00754259 -0.00754259 0.439961 544700 544700 -665110 -467606 403975 403975 505011 3.03007e+06
2679 1 0.323102 0.18125 0.519352 -0.00754259 -0.00754259 0.439961 544700 544700 -665110 -467606 403975 403975 505011 3.03007e+06
4821 2 0.323102 0.198981 0.501681 -0.024516 -0.024516 -0.116927 -1.02798e+06 -1.02798e+06 -2.66806e+06 157493 40501.9 40501.9 827088 4.96253e+06
6879 2 0.30537 0.18125 0.501681 -0.105309 -0.105309 0.240471 751313 751313 -162523 -538124 212779 212779 438138 2.62883e+06
4822 2 0.323102 0.198981 0.537024 -0.105309 -0.105309 0.240471 751313 751313 -162523 -538124 212779 212779 438138 2.62883e+06
2732 1 0.323102 0.358565 0.0952381 0.18139 0.18139 -0.40091 1.25549e+06 1.25549e+06 -620086 -643062 -229745 -229745 705602 4.23361e+06
4862 2 0.323102 0.340833 0.11291 -0.150977 -0.150977 -0.114124 615252 615252 -349957 -472221 -130237 -130237 385526 2.31316e+06
6928 2 0.30537 0.358565 0.11291 -0.150977 -0.150977 -0.114124 615252 615252 -349957 -472221 -130237 -130237 385526 2.31316e+06
6784 2 0.269907 0.394028 0.11291 0.234041 1.47018e-16 0.185334 1.27125e+06 1.38651e+06 697100 -3.85218e-12 -513679 2.07842e-10 644756 3.86853e+06
2573 1 0.287639 0.394028 0.0952381 0.568911 8.13152e-20 -0.1317 943084 1.02036e+06 -244994 8.68542e-14 -424068 -9.73288e-12 438752 2.63251e+06
4702 2 0.287639 0.376296 0.11291 -0.222796 -0.0895062 -0.0858906 671492 709537 -379607 -576798 -110446 -106290 425695 2.55417e+06
537 1 0.30537 0.376296 0.0952381 0.168637 0.191309 -0.414771 1.27628e+06 1.26413e+06 -616029 -661986 -217577 -241982 712997 4.27798e+06
2749 1 0.323102 0.394028 0.0952381 -0.0107804 -1.66533e-16 -0.666626 1.33322e+06 1.33641e+06 -961943 -0 19591.4 -1.91065e-10 608527 3.65116e+06
4879 2 0.323102 0.376296 0.11291 -0.050513 -0.050513 -0.165642 -1.07391e+06 -1.07391e+06 -2.23823e+06 85364 15743.7 15743.7 750485 4.50291e+06
6945 2 0.30537 0.394028 0.11291 -0.103388 -1.66533e-16 -0.146861 -1.0288e+06 -1.03369e+06 -2.30086e+06 -2.11229e-10 28293.9 -0 731941 4.39164e+06
2716 1 0.323102 0.323102 0.130581 -0.00754259 -0.00754259 -0.439961 544700 544700 -665110 -467606 -403975 -403975 505011 3.03007e+06
4847 2 0.323102 0.30537 0.148252 -0.105309 -0.105309 -0.240471 751313 751313 -162523 -538124 -212779 -212779 438138 2.62883e+06
6913 2 0.30537 0.323102 0.148252 -0.105309 -0.105309 -0.240471 751313 751313 -162523 -538124 -212779 -212779 438138 2.62883e+06
6769 2 0.269907 0.358565 0.148252 -0.105309 -0.105309 -0.240471 751313 751313 -162523 -538124 -212779 -212779 438138 2.62883e+06
2557 1 0.287639 0.358565 0.130581 -0.00754259 -0.00754259 -0.439961 544700 544700 -665110 -467606 -403975 -403975 505011 3.03007e+06
4687 2 0.287639 0.340833 0.148252 -0.105309 -0.105309 -0.240471 751313 751313 -162523 -538124 -212779 -212779 438138 2.62883e+06
521 1 0.30537 0.340833 0.130581 -0.00754259 -0.00754259 -0.439961 544700 544700 -665110 -467606 -403975 -403975 505011 3.03007e+06
2733 1 0.323102 0.358565 0.130581 -0.153445 -0.153445 -0.264286 -629532 -629532 -2.16422e+06 77706.2 218942 218942 656478 3.93887e+06
4863 2 0.323102 0.340833 0.148252 -0.024516 -0.024516 0.116927 -1.02798e+06 -1.02798e+06 -2.66806e+06 157493 -40501.9 -40501.9 827088 4.96253e+06
6929 2 0.30537 0.358565 0.148252 -0.024516 -0.024516 0.116927 -1.02798e+06 -1.02798e+06 -2.66806e+06 157493 -40501.9 -40501.9 827088 4.96253e+06
6656 2 0.234444 0.394028 0.148252 0.329835 -7.99466e-17 0.0835656 1.41825e+06 1.38651e+06 848271 -3.58767e-10 -663012 1.13641e-10 719341 4.31605e+06
377 1 0.269907 0.376296 0.130581 -0.0121976 0.148328 -0.561644 563585 782917 -540696 -505266 -380176 -580382 558837 3.35302e+06
2429 1 0.252176 0.394028 0.130581 0.471581 1.45717e-16 -0.247112 932977 670017 -49803.5 1.66758e-10 -849970 4.44714e-11 417128 2.50277e+06
4559 2 0.252176 0.376296 0.148252 -0.182083 -0.117929 -0.125827 807553 731890 -320531 -646502 -189304 -67419 460533 2.7632e+06
6785 2 0.269907 0.394028 0.148252 -0.119027 -3.33067e-16 0.165926 -996630 -1.10388e+06 -2.77087e+06 -1.00056e-10 23366.7 -1.77877e-10 815790 4.89474e+06
2574 1 0.287639 0.394028 0.130581 -0.308069 -1.52656e-16 -0.53057 -425087 -427469 -1.8639e+06 -5.28073e-11 439468 -2.00112e-10 525987 3.15592e+06
4703 2 0.287639 0.376296 0.148252 -0.024516 -0.024516 0.116927 -1.02798e+06 -1.02798e+06 -2.66806e+06 157493 -40501.9 -40501.9 827088 4.96253e+06
538 1 0.30537 0.376296 0.130581 -0.153445 -0.153445 -0.264286 -629532 -629532 -2.16422e+06 77706.2 218942 218942 656478 3.93887e+06
2750 1 0.323102 0.394028 0.130581 1.69309e-15 0 0.000874077 -831628 -831628 -2.46324e+06 1.77877e-10 1.77877e-10 2.64678e-10 687750 4.1265e+06
4880 2 0.323102 0.376296 0.148252 2.35922e-15 -2.86576e-15 6.82787e-15 -952093 -952093 -2.46432e+06 1.33408e-10 -3.55755e-10 -1.72961e-10 728084 4.36851e+06
6946 2 0.30537 0.394028 0.148252 -3.05377e-15 2.77556e-17 6.80012e-15 -952093 -952093 -2.46432e+06 7.22149e-10 -4.42794e-10 -4.44693e-11 728084 4.36851e+06
2702 1 0.323102 0.287639 0.165924 -0.00754259 -0.00754259 -0.439961 544700 544700 -665110 -467606 -403975 -403975 505011 3.03007e+06
4834 2 0.323102 0.269907 0.183595 -0.105309 -0.105309 -0.240471 751313 751313 -162523 -538124 -212779 -212779 438138 2.62883e+06
6900 2 0.30537 0.287639 0.183595 -0.105309 -0.105309 -0.240471 751313 751313 -162523 -538124 -212779 -212779 438138 2.62883e+06
6756 2 0.269907 0.323102 0.183595 -0.105309 -0.105309 -0.240471 751313 751313 -162523 -538124 -212779 -212779 438138 2.62883e+06
2543 1 0.287639 0.323102 0.165924 -0.00754259 -0.00754259 -0.439961 544700 544700 -665110 -467606 -403975 -403975 505011 3.03007e+06
4674 2 0.287639 0.30537 0.183595 -0.105309 -0.105309 -0.240471 751313 751313 -162523 -538124 -212779 -212779 438138 2.62883e+06
507 1 0.30537 0.30537 0.165924 -0.00754259 -0.00754259 -0.439961 544700 544700 -665110 -467606 -403975 -403975 505011 3.03007e+06
2717 1 0.323102 0.323102 0.165924 -0.153454 -0.153454 -0.264687 -629927 -629927 -2.16265e+06 77706.2 218955 218955 656354 3.93812e+06
4848 2 0.323102 0.30537 0.183595 -0.024516 -0.024516 0.116927 -1.02798e+06 -1.02798e+06 -2.66806e+06 157493 -40501.9 -40501.9 827088 4.96253e+06
6914 2 0.30537 0.323102 0.183595 -0.024516 -0.024516 0.116927 -1.02798e+06 -1.02798e+06 -2.66806e+06 157493 -40501.9 -40501.9 827088 4.96253e+06
6643 2 0.234444 0.358565 0.183595 -0.105309 -0.105309 -0.240471 751313 751313 -162523 -538124 -212779 -212779 438138 2.62883e+06
363 1 0.269907 0.340833 0.165924 -0.00754259 -0.00754259 -0.439961 544700 544700 -665110 -467606 -403975 -403975 505011 3.03007e+06
2415 1 0.252176 0.358565 0.165924 -0.00754259 -0.00754259 -0.439961 544700 544700 -665110 -467606 -403975 -403975 505011 3.03007e+06
4546 2 0.252176 0.340833 0.183595 -0.105309 -0.105309 -0.240471 751313 751313 -162523 -538124 -212779 -212779 438138 2.62883e+06
6770 2 0.269907 0.358565 0.183595 -0.024516 -0.024516 0.116927 -1.02798e+06 -1.02798e+06 -2.66806e+06 157493 -40501.9 -40501.9 827088 4.96253e+06
2558 1 0.287639 0.358565 0.165924 -0.153454 -0.153454 -0.264687 -629927 -629927 -2.16265e+06 77706.2 218955 218955 656354 3.93812e+06
4688 2 0.287639 0.340833 0.183595 -0.024516 -0.024516 0.116927 -1.02798e+06 -1.02798e+06 -2.66806e+06 157493 -40501.9 -40501.9 827088 4.96253e+06
522 1 0.30537 0.340833 0.165924 -0.153454 -0.153454 -0.264687 -629927 -629927 -2.16265e+06 77706.2 218955 218955 656354 3.93812e+06
2734 1 0.323102 0.358565 0.165924 2.10942e-15 -2.18714e-14 -6.10623e-16 -832486 -832486 -2.45984e+06 1.55643e-10 -2.66816e-10 9.16863e-11 687469 4.12481e+06
4864 2 0.323102 0.340833 0.183595 1.9984e-15 3.00454e-14 -6.88338e-15 -952093 -952093 -2.46432e+06 1.00056e-10 -2.66816e-10 -1.88937e-09 728084 4.36851e+06
6930 2 0.30537 0.358565 0.183595 -2.85884e-15 -2.98125e-14 -7.33783e-15 -952093 -952093 -2.46432e+06 -4.15405e-10 2.22332e-10 1.51217e-09 728084 4.36851e+06
6558 2 0.198981 0.394028 0.183595 0.329835 -7.09318e-17 0.0835656 1.41825e+06 1.38651e+06 848271 -2.57417e-10 -663012 9.1794e-12 719341 4.31605e+06