FePt grain test

9879	atoms
2	atom types
0.0	57.450000	xlo xhi
0.0	57.450000	ylo yhi
0.0	55.665000	zlo zhi
0.0	0.0	0.0	 xy xz yz

Atoms

1	2	28.725000	5.745000	0.000000
2	1	28.725000	3.830000	1.855500
3	1	26.810000	5.745000	1.855500
4	1	30.640000	5.745000	1.855500
5	2	24.895000	9.575000	0.000000
6	1	24.895000	7.660000	1.855500
7	1	22.980000	9.575000	1.855500
8	2	26.810000	7.660000	0.000000
9	2	28.725000	9.575000	0.000000
10	1	28.725000	7.660000	1.855500
11	1	26.810000	9.575000	1.855500
12	2	30.640000	7.660000	0.000000
13	2	32.555000	9.575000	0.000000
14	1	32.555000	7.660000	1.855500
15	1	30.640000	9.575000	1.855500
16	1	34.470000	9.575000	1.855500
17	2	21.065000	13.405000	0.000000
18	1	21.065000	11.490000	1.855500
19	1	19.150000	13.405000	1.855500
20	2	22.980000	11.490000	0.000000
21	2	24.895000	13.405000	0.000000
22	1	24.895000	11.490000	1.855500
23	1	22.980000	13.405000	1.855500
24	2	26.810000	11.490000	0.000000
25	2	28.725000	13.405000	0.000000
26	1	28.725000	11.490000	1.855500
27	1	26.810000	13.405000	1.855500
28	2	30.640000	11.490000	0.000000
29	2	32.555000	13.405000	0.000000
30	1	32.555000	11.490000	1.855500
31	1	30.640000	13.405000	1.855500
32	2	34.470000	11.490000	0.000000
33	2	36.385000	13.405000	0.000000
34	1	36.385000	11.490000	1.855500
35	1	34.470000	13.405000	1.855500
36	1	38.300000	13.405000	1.855500
37	2	17.235000	17.235000	0.000000
38	1	17.235000	15.320000	1.855500
39	1	15.320000	17.235000	1.855500
40	2	19.150000	15.320000	0.000000
41	2	21.065000	17.235000	0.000000
42	1	21.065000	15.320000	1.855500
43	1	19.150000	17.235000	1.855500
44	2	22.980000	15.320000	0.000000
45	2	24.895000	17.235000	0.000000
46	1	24.895000	15.320000	1.855500
47	1	22.980000	17.235000	1.855500
48	2	26.810000	15.320000	0.000000
49	2	28.725000	17.235000	0.000000
50	1	28.725000	15.320000	1.855500
51	1	26.810000	17.235000	1.855500
52	2	30.640000	15.320000	0.000000
53	2	32.555000	17.235000	0.000000
54	1	32.555000	15.320000	1.855500
55	1	30.640000	17.235000	1.855500
56	2	34.470000	15.320000	0.000000
57	2	36.385000	17.235000	0.000000
58	1	36.385000	15.320000	1.855500
59	1	34.470000	17.235000	1.855500
60	2	38.300000	15.320000	0.000000
61	2	40.215000	17.235000	0.000000
62	1	40.215000	15.320000	1.855500
63	1	38.300000	17.235000	1.855500
64	1	42.130000	17.235000	1.855500
65	2	13.405000	21.065000	0.000000
66	1	13.405000	19.150000	1.855500
67	1	11.490000	21.065000	1.855500
68	2	15.320000	19.150000	0.000000
69	2	17.235000	21.065000	0.000000
70	1	17.235000	19.150000	1.855500
71	1	15.320000	21.065000	1.855500
72	2	19.150000	19.150000	0.000000
73	2	21.065000	21.065000	0.000000
74	1	21.065000	19.150000	1.855500
75	1	19.150000	21.065000	1.855500
76	2	22.980000	19.150000	0.000000
77	2	24.895000	21.065000	0.000000
78	1	24.895000	19.150000	1.855500
79	1	22.980000	21.065000	1.855500
80	2	26.810000	19.150000	0.000000
81	2	28.725000	21.065000	0.000000
82	1	28.725000	19.150000	1.855500
83	1	26.810000	21.065000	1.855500
84	2	30.640000	19.150000	0.000000
85	2	32.555000	21.065000	0.000000
86	1	32.555000	19.150000	1.855500
87	1	30.640000	21.065000	1.855500
88	2	34.470000	19.150000	0.000000
89	2	36.385000	21.065000	0.000000
90	1	36.385000	19.150000	1.855500
91	1	34.470000	21.065000	1.855500
92	2	38.300000	19.150000	0.000000
93	2	40.215000	21.065000	0.000000
94	1	40.215000	19.150000	1.855500
95	1	38.300000	21.065000	1.855500
96	2	42.130000	19.150000	0.000000
97	2	44.045000	21.065000	0.000000
98	1	44.045000	19.150000	1.855500
99	1	42.130000	21.065000	1.855500
100	1	45.960000	21.065000	1.855500
101	2	9.575000	24.895000	0.000000
102	1	9.575000	22.980000	1.855500
103	1	7.660000	24.895000	1.855500
104	2	11.490000	22.980000	0.000000
105	2	13.405000	24.895000	0.000000
106	1	13.405000	22.980000	1.855500
107	1	11.490000	24.895000	1.855500
108	2	15.320000	22.980000	0.000000
109	2	17.235000	24.895000	0.000000
110	1	17.235000	22.980000	1.855500
111	1	15.320000	24.895000	1.855500
112	2	19.150000	22.980000	0.000000
113	2	21.065000	24.895000	0.000000
114	1	21.065000	22.980000	1.855500
115	1	19.150000	24.895000	1.855500
116	2	22.980000	22.980000	0.000000
117	2	24.895000	24.895000	0.000000
118	1	24.895000	22.980000	1.855500
119	1	22.980000	24.895000	1.855500
120	2	26.810000	22.980000	0.000000
121	2	28.725000	24.895000	0.000000
122	1	28.725000	22.980000	1.855500
123	1	26.810000	24.895000	1.855500
124	2	30.640000	22.980000	0.000000
125	2	32.555000	24.895000	0.000000
126	1	32.555000	22.980000	1.855500
127	1	30.640000	24.895000	1.855500
128	2	34.470000	22.980000	0.000000
129	2	36.385000	24.895000	0.000000
130	1	36.385000	22.980000	1.855500
131	1	34.470000	24.895000	1.855500
132	2	38.300000	22.980000	0.000000
133	2	40.215000	24.895000	0.000000
134	1	40.215000	22.980000	1.855500
135	1	38.300000	24.895000	1.855500
136	2	42.130000	22.980000	0.000000
137	2	44.045000	24.895000	0.000000
138	1	44.045000	22.980000	1.855500
139	1	42.130000	24.895000	1.855500
140	2	45.960000	22.980000	0.000000
141	2	47.875000	24.895000	0.000000
142	1	47.875000	22.980000	1.855500
143	1	45.960000	24.895000	1.855500
144	1	49.790000	24.895000	1.855500
145	1	5.745000	26.810000	1.855500
146	1	3.830000	28.725000	1.855500
147	2	7.660000	26.810000	0.000000
148	2	9.575000	28.725000	0.000000
149	1	9.575000	26.810000	1.855500
150	1	7.660000	28.725000	1.855500
151	2	11.490000	26.810000	0.000000
152	2	13.405000	28.725000	0.000000
153	1	13.405000	26.810000	1.855500
154	1	11.490000	28.725000	1.855500
155	2	15.320000	26.810000	0.000000
156	2	17.235000	28.725000	0.000000
157	1	17.235000	26.810000	1.855500
158	1	15.320000	28.725000	1.855500
159	2	19.150000	26.810000	0.000000
160	2	21.065000	28.725000	0.000000
161	1	21.065000	26.810000	1.855500
162	1	19.150000	28.725000	1.855500
163	2	22.980000	26.810000	0.000000
164	2	24.895000	28.725000	0.000000
165	1	24.895000	26.810000	1.855500
166	1	22.980000	28.725000	1.855500
167	2	26.810000	26.810000	0.000000
168	2	28.725000	28.725000	0.000000
169	1	28.725000	26.810000	1.855500
170	1	26.810000	28.725000	1.855500
171	2	30.640000	26.810000	0.000000
172	2	32.555000	28.725000	0.000000
173	1	32.555000	26.810000	1.855500
174	1	30.640000	28.725000	1.855500
175	2	34.470000	26.810000	0.000000
176	2	36.385000	28.725000	0.000000
177	1	36.385000	26.810000	1.855500
178	1	34.470000	28.725000	1.855500
179	2	38.300000	26.810000	0.000000
180	2	40.215000	28.725000	0.000000
181	1	40.215000	26.810000	1.855500
182	1	38.300000	28.725000	1.855500
183	2	42.130000	26.810000	0.000000
184	2	44.045000	28.725000	0.000000
185	1	44.045000	26.810000	1.855500
186	1	42.130000	28.725000	1.855500
187	2	45.960000	26.810000	0.000000
188	2	47.875000	28.725000	0.000000
189	1	47.875000	26.810000	1.855500
190	1	45.960000	28.725000	1.855500
191	2	49.790000	26.810000	0.000000
192	1	51.705000	26.810000	1.855500
193	1	49.790000	28.725000	1.855500
194	1	5.745000	30.640000	1.855500
195	1	9.575000	30.640000	1.855500
196	1	7.660000	32.555000	1.855500
197	2	11.490000	30.640000	0.000000
198	2	13.405000	32.555000	0.000000
199	1	13.405000	30.640000	1.855500
200	1	11.490000	32.555000	1.855500
201	2	15.320000	30.640000	0.000000
202	2	17.235000	32.555000	0.000000
203	1	17.235000	30.640000	1.855500
204	1	15.320000	32.555000	1.855500
205	2	19.150000	30.640000	0.000000
206	2	21.065000	32.555000	0.000000
207	1	21.065000	30.640000	1.855500
208	1	19.150000	32.555000	1.855500
209	2	22.980000	30.640000	0.000000
210	2	24.895000	32.555000	0.000000
211	1	24.895000	30.640000	1.855500
212	1	22.980000	32.555000	1.855500
213	2	26.810000	30.640000	0.000000
214	2	28.725000	32.555000	0.000000
215	1	28.725000	30.640000	1.855500
216	1	26.810000	32.555000	1.855500
217	2	30.640000	30.640000	0.000000
218	2	32.555000	32.555000	0.000000
219	1	32.555000	30.640000	1.855500
220	1	30.640000	32.555000	1.855500
221	2	34.470000	30.640000	0.000000
222	2	36.385000	32.555000	0.000000
223	1	36.385000	30.640000	1.855500
224	1	34.470000	32.555000	1.855500
225	2	38.300000	30.640000	0.000000
226	2	40.215000	32.555000	0.000000
227	1	40.215000	30.640000	1.855500
228	1	38.300000	32.555000	1.855500
229	2	42.130000	30.640000	0.000000
230	2	44.045000	32.555000	0.000000
231	1	44.045000	30.640000	1.855500
232	1	42.130000	32.555000	1.855500
233	2	45.960000	30.640000	0.000000
234	1	47.875000	30.640000	1.855500
235	1	45.960000	32.555000	1.855500
236	1	9.575000	34.470000	1.855500
237	1	13.405000	34.470000	1.855500
238	1	11.490000	36.385000	1.855500
239	2	15.320000	34.470000	0.000000
240	2	17.235000	36.385000	0.000000
241	1	17.235000	34.470000	1.855500
242	1	15.320000	36.385000	1.855500
243	2	19.150000	34.470000	0.000000
244	2	21.065000	36.385000	0.000000
245	1	21.065000	34.470000	1.855500
246	1	19.150000	36.385000	1.855500
247	2	22.980000	34.470000	0.000000
248	2	24.895000	36.385000	0.000000
249	1	24.895000	34.470000	1.855500
250	1	22.980000	36.385000	1.855500
251	2	26.810000	34.470000	0.000000
252	2	28.725000	36.385000	0.000000
253	1	28.725000	34.470000	1.855500
254	1	26.810000	36.385000	1.855500
255	2	30.640000	34.470000	0.000000
256	2	32.555000	36.385000	0.000000
257	1	32.555000	34.470000	1.855500
258	1	30.640000	36.385000	1.855500
259	2	34.470000	34.470000	0.000000
260	2	36.385000	36.385000	0.000000
261	1	36.385000	34.470000	1.855500
262	1	34.470000	36.385000	1.855500
263	2	38.300000	34.470000	0.000000
264	2	40.215000	36.385000	0.000000
265	1	40.215000	34.470000	1.855500
266	1	38.300000	36.385000	1.855500
267	2	42.130000	34.470000	0.000000
268	1	44.045000	34.470000	1.855500
269	1	42.130000	36.385000	1.855500
270	1	13.405000	38.300000	1.855500
271	1	17.235000	38.300000	1.855500
272	1	15.320000	40.215000	1.855500
273	2	19.150000	38.300000	0.000000
274	2	21.065000	40.215000	0.000000
275	1	21.065000	38.300000	1.855500
276	1	19.150000	40.215000	1.855500
277	2	22.980000	38.300000	0.000000
278	2	24.895000	40.215000	0.000000
279	1	24.895000	38.300000	1.855500
280	1	22.980000	40.215000	1.855500
281	2	26.810000	38.300000	0.000000
282	2	28.725000	40.215000	0.000000
283	1	28.725000	38.300000	1.855500
284	1	26.810000	40.215000	1.855500
285	2	30.640000	38.300000	0.000000
286	2	32.555000	40.215000	0.000000
287	1	32.555000	38.300000	1.855500
288	1	30.640000	40.215000	1.855500
289	2	34.470000	38.300000	0.000000
290	2	36.385000	40.215000	0.000000
291	1	36.385000	38.300000	1.855500
292	1	34.470000	40.215000	1.855500
293	2	38.300000	38.300000	0.000000
294	1	40.215000	38.300000	1.855500
295	1	38.300000	40.215000	1.855500
296	1	17.235000	42.130000	1.855500
297	1	21.065000	42.130000	1.855500
298	1	19.150000	44.045000	1.855500
299	2	22.980000	42.130000	0.000000
300	2	24.895000	44.045000	0.000000
301	1	24.895000	42.130000	1.855500
302	1	22.980000	44.045000	1.855500
303	2	26.810000	42.130000	0.000000
304	2	28.725000	44.045000	0.000000
305	1	28.725000	42.130000	1.855500
306	1	26.810000	44.045000	1.855500
307	2	30.640000	42.130000	0.000000
308	2	32.555000	44.045000	0.000000
309	1	32.555000	42.130000	1.855500
310	1	30.640000	44.045000	1.855500
311	2	34.470000	42.130000	0.000000
312	1	36.385000	42.130000	1.855500
313	1	34.470000	44.045000	1.855500
314	1	21.065000	45.960000	1.855500
315	1	24.895000	45.960000	1.855500
316	1	22.980000	47.875000	1.855500
317	2	26.810000	45.960000	0.000000
318	2	28.725000	47.875000	0.000000
319	1	28.725000	45.960000	1.855500
320	1	26.810000	47.875000	1.855500
321	2	30.640000	45.960000	0.000000
322	1	32.555000	45.960000	1.855500
323	1	30.640000	47.875000	1.855500
324	1	24.895000	49.790000	1.855500
325	1	28.725000	49.790000	1.855500
326	1	26.810000	51.705000	1.855500
327	2	28.725000	1.915000	3.711000
328	1	28.725000	0.000000	5.566500
329	1	26.810000	1.915000	5.566500
330	1	30.640000	1.915000	5.566500
331	2	24.895000	5.745000	3.711000
332	1	24.895000	3.830000	5.566500
333	1	22.980000	5.745000	5.566500
334	2	26.810000	3.830000	3.711000
335	2	28.725000	5.745000	3.711000
336	1	28.725000	3.830000	5.566500
337	1	26.810000	5.745000	5.566500
338	2	30.640000	3.830000	3.711000
339	2	32.555000	5.745000	3.711000
340	1	32.555000	3.830000	5.566500
341	1	30.640000	5.745000	5.566500
342	1	34.470000	5.745000	5.566500
343	2	21.065000	9.575000	3.711000
344	1	21.065000	7.660000	5.566500
345	1	19.150000	9.575000	5.566500
346	2	22.980000	7.660000	3.711000
347	2	24.895000	9.575000	3.711000
348	1	24.895000	7.660000	5.566500
349	1	22.980000	9.575000	5.566500
350	2	26.810000	7.660000	3.711000
351	2	28.725000	9.575000	3.711000
352	1	28.725000	7.660000	5.566500
353	1	26.810000	9.575000	5.566500
354	2	30.640000	7.660000	3.711000
355	2	32.555000	9.575000	3.711000
356	1	32.555000	7.660000	5.566500
357	1	30.640000	9.575000	5.566500
358	2	34.470000	7.660000	3.711000
359	2	36.385000	9.575000	3.711000
360	1	36.385000	7.660000	5.566500
361	1	34.470000	9.575000	5.566500
362	1	38.300000	9.575000	5.566500
363	2	17.235000	13.405000	3.711000
364	1	17.235000	11.490000	5.566500
365	1	15.320000	13.405000	5.566500
366	2	19.150000	11.490000	3.711000
367	2	21.065000	13.405000	3.711000
368	1	21.065000	11.490000	5.566500
369	1	19.150000	13.405000	5.566500
370	2	22.980000	11.490000	3.711000
371	2	24.895000	13.405000	3.711000
372	1	24.895000	11.490000	5.566500
373	1	22.980000	13.405000	5.566500
374	2	26.810000	11.490000	3.711000
375	2	28.725000	13.405000	3.711000
376	1	28.725000	11.490000	5.566500
377	1	26.810000	13.405000	5.566500
378	2	30.640000	11.490000	3.711000
379	2	32.555000	13.405000	3.711000
380	1	32.555000	11.490000	5.566500
381	1	30.640000	13.405000	5.566500
382	2	34.470000	11.490000	3.711000
383	2	36.385000	13.405000	3.711000
384	1	36.385000	11.490000	5.566500
385	1	34.470000	13.405000	5.566500
386	2	38.300000	11.490000	3.711000
387	2	40.215000	13.405000	3.711000
388	1	40.215000	11.490000	5.566500
389	1	38.300000	13.405000	5.566500
390	1	42.130000	13.405000	5.566500
391	2	13.405000	17.235000	3.711000
392	1	13.405000	15.320000	5.566500
393	1	11.490000	17.235000	5.566500
394	2	15.320000	15.320000	3.711000
395	2	17.235000	17.235000	3.711000
396	1	17.235000	15.320000	5.566500
397	1	15.320000	17.235000	5.566500
398	2	19.150000	15.320000	3.711000
399	2	21.065000	17.235000	3.711000
400	1	21.065000	15.320000	5.566500
401	1	19.150000	17.235000	5.566500
402	2	22.980000	15.320000	3.711000
403	2	24.895000	17.235000	3.711000
404	1	24.895000	15.320000	5.566500
405	1	22.980000	17.235000	5.566500
406	2	26.810000	15.320000	3.711000
407	2	28.725000	17.235000	3.711000
408	1	28.725000	15.320000	5.566500
409	1	26.810000	17.235000	5.566500
410	2	30.640000	15.320000	3.711000
411	2	32.555000	17.235000	3.711000
412	1	32.555000	15.320000	5.566500
413	1	30.640000	17.235000	5.566500
414	2	34.470000	15.320000	3.711000
415	2	36.385000	17.235000	3.711000
416	1	36.385000	15.320000	5.566500
417	1	34.470000	17.235000	5.566500
418	2	38.300000	15.320000	3.711000
419	2	40.215000	17.235000	3.711000
420	1	40.215000	15.320000	5.566500
421	1	38.300000	17.235000	5.566500
422	2	42.130000	15.320000	3.711000
423	2	44.045000	17.235000	3.711000
424	1	44.045000	15.320000	5.566500
425	1	42.130000	17.235000	5.566500
426	1	45.960000	17.235000	5.566500
427	2	9.575000	21.065000	3.711000
428	1	9.575000	19.150000	5.566500
429	1	7.660000	21.065000	5.566500
430	2	11.490000	19.150000	3.711000
431	2	13.405000	21.065000	3.711000
432	1	13.405000	19.150000	5.566500
433	1	11.490000	21.065000	5.566500
434	2	15.320000	19.150000	3.711000
435	2	17.235000	21.065000	3.711000
436	1	17.235000	19.150000	5.566500
437	1	15.320000	21.065000	5.566500
438	2	19.150000	19.150000	3.711000
439	2	21.065000	21.065000	3.711000
440	1	21.065000	19.150000	5.566500
441	1	19.150000	21.065000	5.566500
442	2	22.980000	19.150000	3.711000
443	2	24.895000	21.065000	3.711000
444	1	24.895000	19.150000	5.566500
445	1	22.980000	21.065000	5.566500
446	2	26.810000	19.150000	3.711000
447	2	28.725000	21.065000	3.711000
448	1	28.725000	19.150000	5.566500
449	1	26.810000	21.065000	5.566500
450	2	30.640000	19.150000	3.711000
451	2	32.555000	21.065000	3.711000
452	1	32.555000	19.150000	5.566500
453	1	30.640000	21.065000	5.566500
454	2	34.470000	19.150000	3.711000
455	2	36.385000	21.065000	3.711000
456	1	36.385000	19.150000	5.566500
457	1	34.470000	21.065000	5.566500
458	2	38.300000	19.150000	3.711000
459	2	40.215000	21.065000	3.711000
460	1	40.215000	19.150000	5.566500
461	1	38.300000	21.065000	5.566500
462	2	42.130000	19.150000	3.711000
463	2	44.045000	21.065000	3.711000
464	1	44.045000	19.150000	5.566500
465	1	42.130000	21.065000	5.566500
466	2	45.960000	19.150000	3.711000
467	2	47.875000	21.065000	3.711000
468	1	47.875000	19.150000	5.566500
469	1	45.960000	21.065000	5.566500
470	1	49.790000	21.065000	5.566500
471	2	5.745000	24.895000	3.711000
472	1	5.745000	22.980000	5.566500
473	1	3.830000	24.895000	5.566500
474	2	7.660000	22.980000	3.711000
475	2	9.575000	24.895000	3.711000
476	1	9.575000	22.980000	5.566500
477	1	7.660000	24.895000	5.566500
478	2	11.490000	22.980000	3.711000
479	2	13.405000	24.895000	3.711000
480	1	13.405000	22.980000	5.566500
481	1	11.490000	24.895000	5.566500
482	2	15.320000	22.980000	3.711000
483	2	17.235000	24.895000	3.711000
484	1	17.235000	22.980000	5.566500
485	1	15.320000	24.895000	5.566500
486	2	19.150000	22.980000	3.711000
487	2	21.065000	24.895000	3.711000
488	1	21.065000	22.980000	5.566500
489	1	19.150000	24.895000	5.566500
490	2	22.980000	22.980000	3.711000
491	2	24.895000	24.895000	3.711000
492	1	24.895000	22.980000	5.566500
493	1	22.980000	24.895000	5.566500
494	2	26.810000	22.980000	3.711000
495	2	28.725000	24.895000	3.711000
496	1	28.725000	22.980000	5.566500
497	1	26.810000	24.895000	5.566500
498	2	30.640000	22.980000	3.711000
499	2	32.555000	24.895000	3.711000
500	1	32.555000	22.980000	5.566500
501	1	30.640000	24.895000	5.566500
502	2	34.470000	22.980000	3.711000
503	2	36.385000	24.895000	3.711000
504	1	36.385000	22.980000	5.566500
505	1	34.470000	24.895000	5.566500
506	2	38.300000	22.980000	3.711000
507	2	40.215000	24.895000	3.711000
508	1	40.215000	22.980000	5.566500
509	1	38.300000	24.895000	5.566500
510	2	42.130000	22.980000	3.711000
511	2	44.045000	24.895000	3.711000
512	1	44.045000	22.980000	5.566500
513	1	42.130000	24.895000	5.566500
514	2	45.960000	22.980000	3.711000
515	2	47.875000	24.895000	3.711000
516	1	47.875000	22.980000	5.566500
517	1	45.960000	24.895000	5.566500
518	2	49.790000	22.980000	3.711000
519	2	51.705000	24.895000	3.711000
520	1	51.705000	22.980000	5.566500
521	1	49.790000	24.895000	5.566500
522	1	53.620000	24.895000	5.566500
523	1	1.915000	26.810000	5.566500
524	1	0.000000	28.725000	5.566500
525	2	3.830000	26.810000	3.711000
526	2	5.745000	28.725000	3.711000
527	1	5.745000	26.810000	5.566500
528	1	3.830000	28.725000	5.566500
529	2	7.660000	26.810000	3.711000
530	2	9.575000	28.725000	3.711000
531	1	9.575000	26.810000	5.566500
532	1	7.660000	28.725000	5.566500
533	2	11.490000	26.810000	3.711000
534	2	13.405000	28.725000	3.711000
535	1	13.405000	26.810000	5.566500
536	1	11.490000	28.725000	5.566500
537	2	15.320000	26.810000	3.711000
538	2	17.235000	28.725000	3.711000
539	1	17.235000	26.810000	5.566500
540	1	15.320000	28.725000	5.566500
541	2	19.150000	26.810000	3.711000
542	2	21.065000	28.725000	3.711000
543	1	21.065000	26.810000	5.566500
544	1	19.150000	28.725000	5.566500
545	2	22.980000	26.810000	3.711000
546	2	24.895000	28.725000	3.711000
547	1	24.895000	26.810000	5.566500
548	1	22.980000	28.725000	5.566500
549	2	26.810000	26.810000	3.711000
550	2	28.725000	28.725000	3.711000
551	1	28.725000	26.810000	5.566500
552	1	26.810000	28.725000	5.566500
553	2	30.640000	26.810000	3.711000
554	2	32.555000	28.725000	3.711000
555	1	32.555000	26.810000	5.566500
556	1	30.640000	28.725000	5.566500
557	2	34.470000	26.810000	3.711000
558	2	36.385000	28.725000	3.711000
559	1	36.385000	26.810000	5.566500
560	1	34.470000	28.725000	5.566500
561	2	38.300000	26.810000	3.711000
562	2	40.215000	28.725000	3.711000
563	1	40.215000	26.810000	5.566500
564	1	38.300000	28.725000	5.566500
565	2	42.130000	26.810000	3.711000
566	2	44.045000	28.725000	3.711000
567	1	44.045000	26.810000	5.566500
568	1	42.130000	28.725000	5.566500
569	2	45.960000	26.810000	3.711000
570	2	47.875000	28.725000	3.711000
571	1	47.875000	26.810000	5.566500
572	1	45.960000	28.725000	5.566500
573	2	49.790000	26.810000	3.711000
574	2	51.705000	28.725000	3.711000
575	1	51.705000	26.810000	5.566500
576	1	49.790000	28.725000	5.566500
577	2	53.620000	26.810000	3.711000
578	1	55.535000	26.810000	5.566500
579	1	53.620000	28.725000	5.566500
580	1	1.915000	30.640000	5.566500
581	1	5.745000	30.640000	5.566500
582	1	3.830000	32.555000	5.566500
583	2	7.660000	30.640000	3.711000
584	2	9.575000	32.555000	3.711000
585	1	9.575000	30.640000	5.566500
586	1	7.660000	32.555000	5.566500
587	2	11.490000	30.640000	3.711000
588	2	13.405000	32.555000	3.711000
589	1	13.405000	30.640000	5.566500
590	1	11.490000	32.555000	5.566500
591	2	15.320000	30.640000	3.711000
592	2	17.235000	32.555000	3.711000
593	1	17.235000	30.640000	5.566500
594	1	15.320000	32.555000	5.566500
595	2	19.150000	30.640000	3.711000
596	2	21.065000	32.555000	3.711000
597	1	21.065000	30.640000	5.566500
598	1	19.150000	32.555000	5.566500
599	2	22.980000	30.640000	3.711000
600	2	24.895000	32.555000	3.711000
601	1	24.895000	30.640000	5.566500
602	1	22.980000	32.555000	5.566500
603	2	26.810000	30.640000	3.711000
604	2	28.725000	32.555000	3.711000
605	1	28.725000	30.640000	5.566500
606	1	26.810000	32.555000	5.566500
607	2	30.640000	30.640000	3.711000
608	2	32.555000	32.555000	3.711000
609	1	32.555000	30.640000	5.566500
610	1	30.640000	32.555000	5.566500
611	2	34.470000	30.640000	3.711000
612	2	36.385000	32.555000	3.711000
613	1	36.385000	30.640000	5.566500
614	1	34.470000	32.555000	5.566500
615	2	38.300000	30.640000	3.711000
616	2	40.215000	32.555000	3.711000
617	1	40.215000	30.640000	5.566500
618	1	38.300000	32.555000	5.566500
619	2	42.130000	30.640000	3.711000
620	2	44.045000	32.555000	3.711000
621	1	44.045000	30.640000	5.566500
622	1	42.130000	32.555000	5.566500
623	2	45.960000	30.640000	3.711000
624	2	47.875000	32.555000	3.711000
625	1	47.875000	30.640000	5.566500
626	1	45.960000	32.555000	5.566500
627	2	49.790000	30.640000	3.711000
628	1	51.705000	30.640000	5.566500
629	1	49.790000	32.555000	5.566500
630	1	5.745000	34.470000	5.566500
631	1	9.575000	34.470000	5.566500
632	1	7.660000	36.385000	5.566500
633	2	11.490000	34.470000	3.711000
634	2	13.405000	36.385000	3.711000
635	1	13.405000	34.470000	5.566500
636	1	11.490000	36.385000	5.566500
637	2	15.320000	34.470000	3.711000
638	2	17.235000	36.385000	3.711000
639	1	17.235000	34.470000	5.566500
640	1	15.320000	36.385000	5.566500
641	2	19.150000	34.470000	3.711000
642	2	21.065000	36.385000	3.711000
643	1	21.065000	34.470000	5.566500
644	1	19.150000	36.385000	5.566500
645	2	22.980000	34.470000	3.711000
646	2	24.895000	36.385000	3.711000
647	1	24.895000	34.470000	5.566500
648	1	22.980000	36.385000	5.566500
649	2	26.810000	34.470000	3.711000
650	2	28.725000	36.385000	3.711000
651	1	28.725000	34.470000	5.566500
652	1	26.810000	36.385000	5.566500
653	2	30.640000	34.470000	3.711000
654	2	32.555000	36.385000	3.711000
655	1	32.555000	34.470000	5.566500
656	1	30.640000	36.385000	5.566500
657	2	34.470000	34.470000	3.711000
658	2	36.385000	36.385000	3.711000
659	1	36.385000	34.470000	5.566500
660	1	34.470000	36.385000	5.566500
661	2	38.300000	34.470000	3.711000
662	2	40.215000	36.385000	3.711000
663	1	40.215000	34.470000	5.566500
664	1	38.300000	36.385000	5.566500
665	2	42.130000	34.470000	3.711000
666	2	44.045000	36.385000	3.711000
667	1	44.045000	34.470000	5.566500
668	1	42.130000	36.385000	5.566500
669	2	45.960000	34.470000	3.711000
670	1	47.875000	34.470000	5.566500
671	1	45.960000	36.385000	5.566500
672	1	9.575000	38.300000	5.566500
673	1	13.405000	38.300000	5.566500
674	1	11.490000	40.215000	5.566500
675	2	15.320000	38.300000	3.711000
676	2	17.235000	40.215000	3.711000
677	1	17.235000	38.300000	5.566500
678	1	15.320000	40.215000	5.566500
679	2	19.150000	38.300000	3.711000
680	2	21.065000	40.215000	3.711000
681	1	21.065000	38.300000	5.566500
682	1	19.150000	40.215000	5.566500
683	2	22.980000	38.300000	3.711000
684	2	24.895000	40.215000	3.711000
685	1	24.895000	38.300000	5.566500
686	1	22.980000	40.215000	5.566500
687	2	26.810000	38.300000	3.711000
688	2	28.725000	40.215000	3.711000
689	1	28.725000	38.300000	5.566500
690	1	26.810000	40.215000	5.566500
691	2	30.640000	38.300000	3.711000
692	2	32.555000	40.215000	3.711000
693	1	32.555000	38.300000	5.566500
694	1	30.640000	40.215000	5.566500
695	2	34.470000	38.300000	3.711000
696	2	36.385000	40.215000	3.711000
697	1	36.385000	38.300000	5.566500
698	1	34.470000	40.215000	5.566500
699	2	38.300000	38.300000	3.711000
700	2	40.215000	40.215000	3.711000
701	1	40.215000	38.300000	5.566500
702	1	38.300000	40.215000	5.566500
703	2	42.130000	38.300000	3.711000
704	1	44.045000	38.300000	5.566500
705	1	42.130000	40.215000	5.566500
706	1	13.405000	42.130000	5.566500
707	1	17.235000	42.130000	5.566500
708	1	15.320000	44.045000	5.566500
709	2	19.150000	42.130000	3.711000
710	2	21.065000	44.045000	3.711000
711	1	21.065000	42.130000	5.566500
712	1	19.150000	44.045000	5.566500
713	2	22.980000	42.130000	3.711000
714	2	24.895000	44.045000	3.711000
715	1	24.895000	42.130000	5.566500
716	1	22.980000	44.045000	5.566500
717	2	26.810000	42.130000	3.711000
718	2	28.725000	44.045000	3.711000
719	1	28.725000	42.130000	5.566500
720	1	26.810000	44.045000	5.566500
721	2	30.640000	42.130000	3.711000
722	2	32.555000	44.045000	3.711000
723	1	32.555000	42.130000	5.566500
724	1	30.640000	44.045000	5.566500
725	2	34.470000	42.130000	3.711000
726	2	36.385000	44.045000	3.711000
727	1	36.385000	42.130000	5.566500
728	1	34.470000	44.045000	5.566500
729	2	38.300000	42.130000	3.711000
730	1	40.215000	42.130000	5.566500
731	1	38.300000	44.045000	5.566500
732	1	17.235000	45.960000	5.566500
733	1	21.065000	45.960000	5.566500
734	1	19.150000	47.875000	5.566500
735	2	22.980000	45.960000	3.711000
736	2	24.895000	47.875000	3.711000
737	1	24.895000	45.960000	5.566500
738	1	22.980000	47.875000	5.566500
739	2	26.810000	45.960000	3.711000
740	2	28.725000	47.875000	3.711000
741	1	28.725000	45.960000	5.566500
742	1	26.810000	47.875000	5.566500
743	2	30.640000	45.960000	3.711000
744	2	32.555000	47.875000	3.711000
745	1	32.555000	45.960000	5.566500
746	1	30.640000	47.875000	5.566500
747	2	34.470000	45.960000	3.711000
748	1	36.385000	45.960000	5.566500
749	1	34.470000	47.875000	5.566500
750	1	21.065000	49.790000	5.566500
751	1	24.895000	49.790000	5.566500
752	1	22.980000	51.705000	5.566500
753	2	26.810000	49.790000	3.711000
754	2	28.725000	51.705000	3.711000
755	1	28.725000	49.790000	5.566500
756	1	26.810000	51.705000	5.566500
757	2	30.640000	49.790000	3.711000
758	1	32.555000	49.790000	5.566500
759	1	30.640000	51.705000	5.566500
760	1	24.895000	53.620000	5.566500
761	1	28.725000	53.620000	5.566500
762	1	26.810000	55.535000	5.566500
763	2	24.895000	1.915000	7.422000
764	1	24.895000	0.000000	9.277500
765	1	22.980000	1.915000	9.277500
766	2	26.810000	0.000000	7.422000
767	2	28.725000	1.915000	7.422000
768	1	28.725000	0.000000	9.277500
769	1	26.810000	1.915000	9.277500
770	2	30.640000	0.000000	7.422000
771	2	32.555000	1.915000	7.422000
772	1	32.555000	0.000000	9.277500
773	1	30.640000	1.915000	9.277500
774	1	34.470000	1.915000	9.277500
775	2	21.065000	5.745000	7.422000
776	1	21.065000	3.830000	9.277500
777	1	19.150000	5.745000	9.277500
778	2	22.980000	3.830000	7.422000
779	2	24.895000	5.745000	7.422000
780	1	24.895000	3.830000	9.277500
781	1	22.980000	5.745000	9.277500
782	2	26.810000	3.830000	7.422000
783	2	28.725000	5.745000	7.422000
784	1	28.725000	3.830000	9.277500
785	1	26.810000	5.745000	9.277500
786	2	30.640000	3.830000	7.422000
787	2	32.555000	5.745000	7.422000
788	1	32.555000	3.830000	9.277500
789	1	30.640000	5.745000	9.277500
790	2	34.470000	3.830000	7.422000
791	2	36.385000	5.745000	7.422000
792	1	36.385000	3.830000	9.277500
793	1	34.470000	5.745000	9.277500
794	1	38.300000	5.745000	9.277500
795	2	17.235000	9.575000	7.422000
796	1	17.235000	7.660000	9.277500
797	1	15.320000	9.575000	9.277500
798	2	19.150000	7.660000	7.422000
799	2	21.065000	9.575000	7.422000
800	1	21.065000	7.660000	9.277500
801	1	19.150000	9.575000	9.277500
802	2	22.980000	7.660000	7.422000
803	2	24.895000	9.575000	7.422000
804	1	24.895000	7.660000	9.277500
805	1	22.980000	9.575000	9.277500
806	2	26.810000	7.660000	7.422000
807	2	28.725000	9.575000	7.422000
808	1	28.725000	7.660000	9.277500
809	1	26.810000	9.575000	9.277500
810	2	30.640000	7.660000	7.422000
811	2	32.555000	9.575000	7.422000
812	1	32.555000	7.660000	9.277500
813	1	30.640000	9.575000	9.277500
814	2	34.470000	7.660000	7.422000
815	2	36.385000	9.575000	7.422000
816	1	36.385000	7.660000	9.277500
817	1	34.470000	9.575000	9.277500
818	2	38.300000	7.660000	7.422000
819	2	40.215000	9.575000	7.422000
820	1	40.215000	7.660000	9.277500
821	1	38.300000	9.575000	9.277500
822	1	42.130000	9.575000	9.277500
823	2	13.405000	13.405000	7.422000
824	1	13.405000	11.490000	9.277500
825	1	11.490000	13.405000	9.277500
826	2	15.320000	11.490000	7.422000
827	2	17.235000	13.405000	7.422000
828	1	17.235000	11.490000	9.277500
829	1	15.320000	13.405000	9.277500
830	2	19.150000	11.490000	7.422000
831	2	21.065000	13.405000	7.422000
832	1	21.065000	11.490000	9.277500
833	1	19.150000	13.405000	9.277500
834	2	22.980000	11.490000	7.422000
835	2	24.895000	13.405000	7.422000
836	1	24.895000	11.490000	9.277500
837	1	22.980000	13.405000	9.277500
838	2	26.810000	11.490000	7.422000
839	2	28.725000	13.405000	7.422000
840	1	28.725000	11.490000	9.277500
841	1	26.810000	13.405000	9.277500
842	2	30.640000	11.490000	7.422000
843	2	32.555000	13.405000	7.422000
844	1	32.555000	11.490000	9.277500
845	1	30.640000	13.405000	9.277500
846	2	34.470000	11.490000	7.422000
847	2	36.385000	13.405000	7.422000
848	1	36.385000	11.490000	9.277500
849	1	34.470000	13.405000	9.277500
850	2	38.300000	11.490000	7.422000
851	2	40.215000	13.405000	7.422000
852	1	40.215000	11.490000	9.277500
853	1	38.300000	13.405000	9.277500
854	2	42.130000	11.490000	7.422000
855	2	44.045000	13.405000	7.422000
856	1	44.045000	11.490000	9.277500
857	1	42.130000	13.405000	9.277500
858	1	45.960000	13.405000	9.277500
859	2	9.575000	17.235000	7.422000
860	1	9.575000	15.320000	9.277500