LAMMPS_Input_Grains/60000_Atom_Target_Ratio_1.4_unperfect_grain

56804 atoms
2 atom types
0 126.39 xlo xhi
0 126.39 ylo yhi
0 122.463 zlo zhi
0.0 0.0 0.0 xy xz yz

Atoms

1 1 3.83 42.13 59.376
2 1 3.83 42.13 63.087
3 1 3.83 45.96 55.665
4 1 3.83 45.96 59.376
5 1 3.83 45.96 63.087
6 1 3.83 45.96 66.798
7 1 3.83 49.79 51.954
8 1 3.83 49.79 55.665
9 1 3.83 49.79 59.376
10 1 3.83 49.79 63.087
11 1 3.83 49.79 66.798
12 1 3.83 49.79 70.509
13 1 3.83 53.62 48.243
14 1 3.83 53.62 51.954
15 1 3.83 53.62 55.665
16 1 3.83 53.62 59.376
17 1 3.83 53.62 63.087
18 1 3.83 53.62 66.798
19 1 3.83 53.62 70.509
20 1 3.83 53.62 74.22
21 1 3.83 57.45 44.532
22 1 3.83 57.45 48.243
23 1 3.83 57.45 51.954
24 1 3.83 57.45 55.665
25 1 3.83 57.45 59.376
26 1 3.83 57.45 63.087
27 1 3.83 57.45 66.798
28 1 3.83 57.45 70.509
29 1 3.83 57.45 74.22
30 1 3.83 57.45 77.931
31 1 3.83 61.28 40.821
32 1 3.83 61.28 44.532
33 1 3.83 61.28 48.243
34 1 3.83 61.28 51.954
35 1 3.83 61.28 55.665
36 1 3.83 61.28 59.376
37 1 3.83 61.28 63.087
38 1 3.83 61.28 66.798
39 1 3.83 61.28 70.509
40 1 3.83 61.28 74.22
41 1 3.83 61.28 77.931
42 1 3.83 61.28 81.642
43 1 3.83 65.11 40.821
44 1 3.83 65.11 44.532
45 1 3.83 65.11 48.243
46 1 3.83 65.11 51.954
47 1 3.83 65.11 55.665
48 1 3.83 65.11 59.376
49 1 3.83 65.11 63.087
50 1 3.83 65.11 66.798
51 1 3.83 65.11 70.509
52 1 3.83 65.11 74.22
53 1 3.83 65.11 77.931
54 1 3.83 65.11 81.642
55 1 3.83 68.94 44.532
56 1 3.83 68.94 48.243
57 1 3.83 68.94 51.954
58 1 3.83 68.94 55.665
59 1 3.83 68.94 59.376
60 1 3.83 68.94 63.087
61 1 3.83 68.94 66.798
62 1 3.83 68.94 70.509
63 1 3.83 68.94 74.22
64 1 3.83 68.94 77.931
65 1 3.83 72.77 48.243
66 1 3.83 72.77 51.954
67 1 3.83 72.77 55.665
68 1 3.83 72.77 59.376
69 1 3.83 72.77 63.087
70 1 3.83 72.77 66.798
71 1 3.83 72.77 70.509
72 1 3.83 72.77 74.22
73 1 3.83 76.6 51.954
74 1 3.83 76.6 55.665
75 1 3.83 76.6 59.376
76 1 3.83 76.6 63.087
77 1 3.83 76.6 66.798
78 1 3.83 76.6 70.509
79 1 3.83 80.43 55.665
80 1 3.83 80.43 59.376
81 1 3.83 80.43 63.087
82 1 3.83 80.43 66.798
83 1 3.83 84.26 59.376
84 1 3.83 84.26 63.087
85 1 7.66 38.3 59.376
86 1 7.66 38.3 63.087
87 1 7.66 42.13 55.665
88 1 7.66 42.13 59.376
89 1 7.66 42.13 63.087
90 1 7.66 42.13 66.798
91 1 7.66 45.96 51.954
92 1 7.66 45.96 55.665
93 1 7.66 45.96 59.376
94 1 7.66 45.96 63.087
95 1 7.66 45.96 66.798
96 1 7.66 45.96 70.509
97 1 7.66 49.79 48.243
98 1 7.66 49.79 51.954
99 1 7.66 49.79 55.665
100 1 7.66 49.79 59.376
101 1 7.66 49.79 63.087
102 1 7.66 49.79 66.798
103 1 7.66 49.79 70.509
104 1 7.66 49.79 74.22
105 1 7.66 53.62 44.532
106 1 7.66 53.62 48.243
107 1 7.66 53.62 51.954
108 1 7.66 53.62 55.665
109 1 7.66 53.62 59.376
110 1 7.66 53.62 63.087
111 1 7.66 53.62 66.798
112 1 7.66 53.62 70.509
113 1 7.66 53.62 74.22
114 1 7.66 53.62 77.931
115 1 7.66 57.45 40.821
116 1 7.66 57.45 44.532
117 1 7.66 57.45 48.243
118 1 7.66 57.45 51.954
119 1 7.66 57.45 55.665
120 1 7.66 57.45 59.376
121 1 7.66 57.45 63.087
122 1 7.66 57.45 66.798
123 1 7.66 57.45 70.509
124 1 7.66 57.45 74.22
125 1 7.66 57.45 77.931
126 1 7.66 57.45 81.642
127 1 7.66 61.28 37.11
128 1 7.66 61.28 40.821
129 1 7.66 61.28 44.532
130 1 7.66 61.28 48.243
131 1 7.66 61.28 51.954
132 1 7.66 61.28 55.665
133 1 7.66 61.28 59.376
134 1 7.66 61.28 63.087
135 1 7.66 61.28 66.798
136 1 7.66 61.28 70.509
137 1 7.66 61.28 74.22
138 1 7.66 61.28 77.931
139 1 7.66 61.28 81.642
140 1 7.66 61.28 85.353
141 1 7.66 65.11 37.11
142 1 7.66 65.11 40.821
143 1 7.66 65.11 44.532
144 1 7.66 65.11 48.243
145 1 7.66 65.11 51.954
146 1 7.66 65.11 55.665
147 1 7.66 65.11 59.376
148 1 7.66 65.11 63.087
149 1 7.66 65.11 66.798
150 1 7.66 65.11 70.509
151 1 7.66 65.11 74.22
152 1 7.66 65.11 77.931
153 1 7.66 65.11 81.642
154 1 7.66 65.11 85.353
155 1 7.66 68.94 40.821
156 1 7.66 68.94 44.532
157 1 7.66 68.94 48.243
158 1 7.66 68.94 51.954
159 1 7.66 68.94 55.665
160 1 7.66 68.94 59.376
161 1 7.66 68.94 63.087
162 1 7.66 68.94 66.798
163 1 7.66 68.94 70.509
164 1 7.66 68.94 74.22
165 1 7.66 68.94 77.931
166 1 7.66 68.94 81.642
167 1 7.66 72.77 44.532
168 1 7.66 72.77 48.243
169 1 7.66 72.77 51.954
170 1 7.66 72.77 55.665
171 1 7.66 72.77 59.376
172 1 7.66 72.77 63.087
173 1 7.66 72.77 66.798
174 1 7.66 72.77 70.509
175 1 7.66 72.77 74.22
176 1 7.66 72.77 77.931
177 1 7.66 76.6 48.243
178 1 7.66 76.6 51.954
179 1 7.66 76.6 55.665
180 1 7.66 76.6 59.376
181 1 7.66 76.6 63.087
182 1 7.66 76.6 66.798
183 1 7.66 76.6 70.509
184 1 7.66 76.6 74.22
185 1 7.66 80.43 51.954
186 1 7.66 80.43 55.665
187 1 7.66 80.43 59.376
188 1 7.66 80.43 63.087
189 1 7.66 80.43 66.798
190 1 7.66 80.43 70.509
191 1 7.66 84.26 55.665
192 1 7.66 84.26 59.376
193 1 7.66 84.26 63.087
194 1 7.66 84.26 66.798
195 1 7.66 88.09 59.376
196 1 7.66 88.09 63.087
197 1 11.49 34.47 59.376
198 1 11.49 34.47 63.087
199 1 11.49 38.3 55.665
200 1 11.49 38.3 59.376
201 1 11.49 38.3 63.087
202 1 11.49 38.3 66.798
203 1 11.49 42.13 48.243
204 1 11.49 42.13 51.954
205 1 11.49 42.13 55.665
206 1 11.49 42.13 59.376
207 1 11.49 42.13 63.087
208 1 11.49 42.13 66.798
209 1 11.49 42.13 70.509
210 1 11.49 42.13 74.22
211 1 11.49 45.96 44.532
212 1 11.49 45.96 48.243
213 1 11.49 45.96 51.954
214 1 11.49 45.96 55.665
215 1 11.49 45.96 59.376
216 1 11.49 45.96 63.087
217 1 11.49 45.96 66.798
218 1 11.49 45.96 70.509
219 1 11.49 45.96 74.22
220 1 11.49 45.96 77.931
221 1 11.49 49.79 40.821
222 1 11.49 49.79 44.532
223 1 11.49 49.79 48.243
224 1 11.49 49.79 51.954
225 1 11.49 49.79 55.665
226 1 11.49 49.79 59.376
227 1 11.49 49.79 63.087
228 1 11.49 49.79 66.798
229 1 11.49 49.79 70.509
230 1 11.49 49.79 74.22
231 1 11.49 49.79 77.931
232 1 11.49 49.79 81.642
233 1 11.49 53.62 40.821
234 1 11.49 53.62 44.532
235 1 11.49 53.62 48.243
236 1 11.49 53.62 51.954
237 1 11.49 53.62 55.665
238 1 11.49 53.62 59.376
239 1 11.49 53.62 63.087
240 1 11.49 53.62 66.798
241 1 11.49 53.62 70.509
242 1 11.49 53.62 74.22
243 1 11.49 53.62 77.931
244 1 11.49 53.62 81.642
245 1 11.49 57.45 37.11
246 1 11.49 57.45 40.821
247 1 11.49 57.45 44.532
248 1 11.49 57.45 48.243
249 1 11.49 57.45 51.954
250 1 11.49 57.45 55.665
251 1 11.49 57.45 59.376
252 1 11.49 57.45 63.087
253 1 11.49 57.45 66.798
254 1 11.49 57.45 70.509
255 1 11.49 57.45 74.22
256 1 11.49 57.45 77.931
257 1 11.49 57.45 81.642
258 1 11.49 57.45 85.353
259 1 11.49 61.28 33.399
260 1 11.49 61.28 37.11
261 1 11.49 61.28 40.821
262 1 11.49 61.28 44.532
263 1 11.49 61.28 48.243
264 1 11.49 61.28 51.954
265 1 11.49 61.28 55.665
266 1 11.49 61.28 59.376
267 1 11.49 61.28 63.087
268 1 11.49 61.28 66.798
269 1 11.49 61.28 70.509
270 1 11.49 61.28 74.22
271 1 11.49 61.28 77.931
272 1 11.49 61.28 81.642
273 1 11.49 61.28 85.353
274 1 11.49 61.28 89.064
275 1 11.49 65.11 33.399
276 1 11.49 65.11 37.11
277 1 11.49 65.11 40.821
278 1 11.49 65.11 44.532
279 1 11.49 65.11 48.243
280 1 11.49 65.11 51.954
281 1 11.49 65.11 55.665
282 1 11.49 65.11 59.376
283 1 11.49 65.11 63.087
284 1 11.49 65.11 66.798
285 1 11.49 65.11 70.509
286 1 11.49 65.11 74.22
287 1 11.49 65.11 77.931
288 1 11.49 65.11 81.642
289 1 11.49 65.11 85.353
290 1 11.49 65.11 89.064
291 1 11.49 68.94 37.11
292 1 11.49 68.94 40.821
293 1 11.49 68.94 44.532
294 1 11.49 68.94 48.243
295 1 11.49 68.94 51.954
296 1 11.49 68.94 55.665
297 1 11.49 68.94 59.376
298 1 11.49 68.94 63.087
299 1 11.49 68.94 66.798
300 1 11.49 68.94 70.509
301 1 11.49 68.94 74.22
302 1 11.49 68.94 77.931
303 1 11.49 68.94 81.642
304 1 11.49 68.94 85.353
305 1 11.49 72.77 40.821
306 1 11.49 72.77 44.532
307 1 11.49 72.77 48.243
308 1 11.49 72.77 51.954
309 1 11.49 72.77 55.665
310 1 11.49 72.77 59.376
311 1 11.49 72.77 63.087
312 1 11.49 72.77 66.798
313 1 11.49 72.77 70.509
314 1 11.49 72.77 74.22
315 1 11.49 72.77 77.931
316 1 11.49 72.77 81.642
317 1 11.49 76.6 40.821
318 1 11.49 76.6 44.532
319 1 11.49 76.6 48.243
320 1 11.49 76.6 51.954
321 1 11.49 76.6 55.665
322 1 11.49 76.6 59.376
323 1 11.49 76.6 63.087
324 1 11.49 76.6 66.798
325 1 11.49 76.6 70.509
326 1 11.49 76.6 74.22
327 1 11.49 76.6 77.931
328 1 11.49 76.6 81.642
329 1 11.49 80.43 44.532
330 1 11.49 80.43 48.243
331 1 11.49 80.43 51.954
332 1 11.49 80.43 55.665
333 1 11.49 80.43 59.376
334 1 11.49 80.43 63.087
335 1 11.49 80.43 66.798
336 1 11.49 80.43 70.509
337 1 11.49 80.43 74.22
338 1 11.49 80.43 77.931
339 1 11.49 84.26 48.243
340 1 11.49 84.26 51.954
341 1 11.49 84.26 55.665
342 1 11.49 84.26 59.376
343 1 11.49 84.26 63.087
344 1 11.49 84.26 66.798
345 1 11.49 84.26 70.509
346 1 11.49 84.26 74.22
347 1 11.49 88.09 55.665
348 1 11.49 88.09 59.376
349 1 11.49 88.09 63.087
350 1 11.49 88.09 66.798
351 1 11.49 91.92 59.376
352 1 11.49 91.92 63.087
353 1 15.32 30.64 59.376
354 1 15.32 30.64 63.087
355 1 15.32 34.47 51.954
356 1 15.32 34.47 55.665
357 1 15.32 34.47 59.376
358 1 15.32 34.47 63.087
359 1 15.32 34.47 66.798
360 1 15.32 34.47 70.509
361 1 15.32 38.3 48.243
362 1 15.32 38.3 51.954
363 1 15.32 38.3 55.665
364 1 15.32 38.3 59.376
365 1 15.32 38.3 63.087
366 1 15.32 38.3 66.798
367 1 15.32 38.3 70.509
368 1 15.32 38.3 74.22
369 1 15.32 42.13 44.532
370 1 15.32 42.13 48.243
371 1 15.32 42.13 51.954
372 1 15.32 42.13 55.665
373 1 15.32 42.13 59.376
374 1 15.32 42.13 63.087
375 1 15.32 42.13 66.798
376 1 15.32 42.13 70.509
377 1 15.32 42.13 74.22
378 1 15.32 42.13 77.931
379 1 15.32 45.96 40.821
380 1 15.32 45.96 44.532
381 1 15.32 45.96 48.243
382 1 15.32 45.96 51.954
383 1 15.32 45.96 55.665
384 1 15.32 45.96 59.376
385 1 15.32 45.96 63.087
386 1 15.32 45.96 66.798
387 1 15.32 45.96 70.509
388 1 15.32 45.96 74.22
389 1 15.32 45.96 77.931
390 1 15.32 45.96 81.642
391 1 15.32 49.79 37.11
392 1 15.32 49.79 40.821
393 1 15.32 49.79 44.532
394 1 15.32 49.79 48.243
395 1 15.32 49.79 51.954
396 1 15.32 49.79 55.665
397 1 15.32 49.79 59.376
398 1 15.32 49.79 63.087
399 1 15.32 49.79 66.798
400 1 15.32 49.79 70.509
401 1 15.32 49.79 74.22
402 1 15.32 49.79 77.931
403 1 15.32 49.79 81.642
404 1 15.32 49.79 85.353
405 1 15.32 53.62 33.399
406 1 15.32 53.62 37.11
407 1 15.32 53.62 40.821
408 1 15.32 53.62 44.532
409 1 15.32 53.62 48.243
410 1 15.32 53.62 51.954
411 1 15.32 53.62 55.665
412 1 15.32 53.62 59.376
413 1 15.32 53.62 63.087
414 1 15.32 53.62 66.798
415 1 15.32 53.62 70.509
416 1 15.32 53.62 74.22
417 1 15.32 53.62 77.931
418 1 15.32 53.62 81.642
419 1 15.32 53.62 85.353
420 1 15.32 53.62 89.064
421 1 15.32 57.45 33.399
422 1 15.32 57.45 37.11
423 1 15.32 57.45 40.821
424 1 15.32 57.45 44.532
425 1 15.32 57.45 48.243
426 1 15.32 57.45 51.954
427 1 15.32 57.45 55.665
428 1 15.32 57.45 59.376
429 1 15.32 57.45 63.087
430 1 15.32 57.45 66.798
431 1 15.32 57.45 70.509
432 1 15.32 57.45 74.22
433 1 15.32 57.45 77.931
434 1 15.32 57.45 81.642
435 1 15.32 57.45 85.353
436 1 15.32 57.45 89.064
437 1 15.32 61.28 29.688
438 1 15.32 61.28 33.399
439 1 15.32 61.28 37.11
440 1 15.32 61.28 40.821
441 1 15.32 61.28 44.532
442 1 15.32 61.28 48.243
443 1 15.32 61.28 51.954
444 1 15.32 61.28 55.665
445 1 15.32 61.28 59.376
446 1 15.32 61.28 63.087
447 1 15.32 61.28 66.798
448 1 15.32 61.28 70.509
449 1 15.32 61.28 74.22
450 1 15.32 61.28 77.931
451 1 15.32 61.28 81.642
452 1 15.32 61.28 85.353
453 1 15.32 61.28 89.064
454 1 15.32 61.28 92.775
455 1 15.32 65.11 29.688
456 1 15.32 65.11 33.399
457 1 15.32 65.11 37.11
458 1 15.32 65.11 40.821
459 1 15.32 65.11 44.532
460 1 15.32 65.11 48.243
461 1 15.32 65.11 51.954
462 1 15.32 65.11 55.665
463 1 15.32 65.11 59.376
464 1 15.32 65.11 63.087
465 1 15.32 65.11 66.798
466 1 15.32 65.11 70.509
467 1 15.32 65.11 74.22
468 1 15.32 65.11 77.931
469 1 15.32 65.11 81.642
470 1 15.32 65.11 85.353
471 1 15.32 65.11 89.064
472 1 15.32 65.11 92.775
473 1 15.32 68.94 33.399
474 1 15.32 68.94 37.11
475 1 15.32 68.94 40.821
476 1 15.32 68.94 44.532
477 1 15.32 68.94 48.243
478 1 15.32 68.94 51.954
479 1 15.32 68.94 55.665
480 1 15.32 68.94 59.376
481 1 15.32 68.94 63.087
482 1 15.32 68.94 66.798
483 1 15.32 68.94 70.509
484 1 15.32 68.94 74.22
485 1 15.32 68.94 77.931
486 1 15.32 68.94 81.642
487 1 15.32 68.94 85.353
488 1 15.32 68.94 89.064
489 1 15.32 72.77 33.399
490 1 15.32 72.77 37.11
491 1 15.32 72.77 40.821
492 1 15.32 72.77 44.532
493 1 15.32 72.77 48.243
494 1 15.32 72.77 51.954
495 1 15.32 72.77 55.665
496 1 15.32 72.77 59.376
497 1 15.32 72.77 63.087
498 1 15.32 72.77 66.798
499 1 15.32 72.77 70.509
500 1 15.32 72.77 74.22
501 1 15.32 72.77 77.931
502 1 15.32 72.77 81.642
503 1 15.32 72.77 85.353
504 1 15.32 72.77 89.064
505 1 15.32 76.6 37.11
506 1 15.32 76.6 40.821
507 1 15.32 76.6 44.532
508 1 15.32 76.6 48.243
509 1 15.32 76.6 51.954
510 1 15.32 76.6 55.665
511 1 15.32 76.6 59.376
512 1 15.32 76.6 63.087
513 1 15.32 76.6 66.798
514 1 15.32 76.6 70.509
515 1 15.32 76.6 74.22
516 1 15.32 76.6 77.931
517 1 15.32 76.6 81.642
518 1 15.32 76.6 85.353
519 1 15.32 80.43 40.821
520 1 15.32 80.43 44.532
521 1 15.32 80.43 48.243
522 1 15.32 80.43 51.954
523 1 15.32 80.43 55.665
524 1 15.32 80.43 59.376
525 1 15.32 80.43 63.087
526 1 15.32 80.43 66.798
527 1 15.32 80.43 70.509
528 1 15.32 80.43 74.22
529 1 15.32 80.43 77.931
530 1 15.32 80.43 81.642
531 1 15.32 84.26 44.532
532 1 15.32 84.26 48.243
533 1 15.32 84.26 51.954
534 1 15.32 84.26 55.665
535 1 15.32 84.26 59.376
536 1 15.32 84.26 63.087
537 1 15.32 84.26 66.798
538 1 15.32 84.26 70.509
539 1 15.32 84.26 74.22
540 1 15.32 84.26 77.931
541 1 15.32 88.09 48.243
542 1 15.32 88.09 51.954
543 1 15.32 88.09 55.665
544 1 15.32 88.09 59.376
545 1 15.32 88.09 63.087
546 1 15.32 88.09 66.798
547 1 15.32 88.09 70.509
548 1 15.32 88.09 74.22
549 1 15.32 91.92 51.954
550 1 15.32 91.92 55.665
551 1 15.32 91.92 59.376
552 1 15.32 91.92 63.087
553 1 15.32 91.92 66.798
554 1 15.32 91.92 70.509
555 1 15.32 95.75 59.376
556 1 15.32 95.75 63.087
557 1 19.15 26.81 59.376
558 1 19.15 26.81 63.087
559 1 19.15 30.64 51.954
560 1 19.15 30.64 55.665
561 1 19.15 30.64 59.376
562 1 19.15 30.64 63.087
563 1 19.15 30.64 66.798
564 1 19.15 30.64 70.509
565 1 19.15 34.47 48.243
566 1 19.15 34.47 51.954
567 1 19.15 34.47 55.665
568 1 19.15 34.47 59.376
569 1 19.15 34.47 63.087
570 1 19.15 34.47 66.798
571 1 19.15 34.47 70.509
572 1 19.15 34.47 74.22
573 1 19.15 38.3 44.532
574 1 19.15 38.3 48.243
575 1 19.15 38.3 51.954
576 1 19.15 38.3 55.665
577 1 19.15 38.3 59.376
578 1 19.15 38.3 63.087
579 1 19.15 38.3 66.798
580 1 19.15 38.3 70.509
581 1 19.15 38.3 74.22
582 1 19.15 38.3 77.931
583 1 19.15 42.13 40.821
584 1 19.15 42.13 44.532
585 1 19.15 42.13 48.243
586 1 19.15 42.13 51.954
587 1 19.15 42.13 55.665
588 1 19.15 42.13 59.376
589 1 19.15 42.13 63.087
590 1 19.15 42.13 66.798
591 1 19.15 42.13 70.509
592 1 19.15 42.13 74.22
593 1 19.15 42.13 77.931
594 1 19.15 42.13 81.642
595 1 19.15 45.96 37.11
596 1 19.15 45.96 40.821
597 1 19.15 45.96 44.532
598 1 19.15 45.96 48.243
599 1 19.15 45.96 51.954
600 1 19.15 45.96 55.665
601 1 19.15 45.96 59.376
602 1 19.15 45.96 63.087
603 1 19.15 45.96 66.798
604 1 19.15 45.96 70.509
605 1 19.15 45.96 74.22
606 1 19.15 45.96 77.931
607 1 19.15 45.96 81.642
608 1 19.15 45.96 85.353
609 1 19.15 49.79 33.399
610 1 19.15 49.79 37.11
611 1 19.15 49.79 40.821
612 1 19.15 49.79 44.532
613 1 19.15 49.79 48.243
614 1 19.15 49.79 51.954
615 1 19.15 49.79 55.665
616 1 19.15 49.79 59.376
617 1 19.15 49.79 63.087
618 1 19.15 49.79 66.798
619 1 19.15 49.79 70.509
620 1 19.15 49.79 74.22
621 1 19.15 49.79 77.931
622 1 19.15 49.79 81.642
623 1 19.15 49.79 85.353
624 1 19.15 49.79 89.064
625 1 19.15 53.62 29.688
626 1 19.15 53.62 33.399
627 1 19.15 53.62 37.11
628 1 19.15 53.62 40.821
629 1 19.15 53.62 44.532
630 1 19.15 53.62 48.243
631 1 19.15 53.62 51.954
632 1 19.15 53.62 55.665
633 1 19.15 53.62 59.376
634 1 19.15 53.62 63.087
635 1 19.15 53.62 66.798
636 1 19.15 53.62 70.509
637 1 19.15 53.62 74.22
638 1 19.15 53.62 77.931
639 1 19.15 53.62 81.642
640 1 19.15 53.62 85.353
641 1 19.15 53.62 89.064
642 1 19.15 53.62 92.775
643 1 19.15 57.45 29.688
644 1 19.15 57.45 33.399
645 1 19.15 57.45 37.11
646 1 19.15 57.45 40.821
647 1 19.15 57.45 44.532
648 1 19.15 57.45 48.243
649 1 19.15 57.45 51.954
650 1 19.15 57.45 55.665
651 1 19.15 57.45 59.376
652 1 19.15 57.45 63.087
653 1 19.15 57.45 66.798
654 1 19.15 57.45 70.509
655 1 19.15 57.45 74.22
656 1 19.15 57.45 77.931
657 1 19.15 57.45 81.642
658 1 19.15 57.45 85.353
659 1 19.15 57.45 89.064
660 1 19.15 57.45 92.775
661 1 19.15 61.28 25.977
662 1 19.15 61.28 29.688
663 1 19.15 61.28 33.399
664 1 19.15 61.28 37.11
665 1 19.15 61.28 40.821
666 1 19.15 61.28 44.532
667 1 19.15 61.28 48.243
668 1 19.15 61.28 51.954
669 1 19.15 61.28 55.665
670 1 19.15 61.28 59.376
671 1 19.15 61.28 63.087
672 1 19.15 61.28 66.798
673 1 19.15 61.28 70.509
674 1 19.15 61.28 74.22
675 1 19.15 61.28 77.931
676 1 19.15 61.28 81.642
677 1 19.15 61.28 85.353
678 1 19.15 61.28 89.064
679 1 19.15 61.28 92.775
680 1 19.15 61.28 96.486
681 1 19.15 65.11 25.977
682 1 19.15 65.11 29.688
683 1 19.15 65.11 33.399
684 1 19.15 65.11 37.11
685 1 19.15 65.11 40.821
686 1 19.15 65.11 44.532
687 1 19.15 65.11 48.243
688 1 19.15 65.11 51.954
689 1 19.15 65.11 55.665
690 1 19.15 65.11 59.376
691 1 19.15 65.11 63.087
692 1 19.15 65.11 66.798
693 1 19.15 65.11 70.509
694 1 19.15 65.11 74.22
695 1 19.15 65.11 77.931
696 1 19.15 65.11 81.642
697 1 19.15 65.11 85.353
698 1 19.15 65.11 89.064
699 1 19.15 65.11 92.775
700 1 19.15 65.11 96.486
701 1 19.15 68.94 29.688
702 1 19.15 68.94 33.399
703 1 19.15 68.94 37.11
704 1 19.15 68.94 40.821
705 1 19.15 68.94 44.532
706 1 19.15 68.94 48.243
707 1 19.15 68.94 51.954
708 1 19.15 68.94 55.665
709 1 19.15 68.94 59.376
710 1 19.15 68.94 63.087
711 1 19.15 68.94 66.798
712 1 19.15 68.94 70.509
713 1 19.15 68.94 74.22
714 1 19.15 68.94 77.931
715 1 19.15 68.94 81.642
716 1 19.15 68.94 85.353
717 1 19.15 68.94 89.064
718 1 19.15 68.94 92.775
719 1 19.15 72.77 29.688
720 1 19.15 72.77 33.399
721 1 19.15 72.77 37.11
722 1 19.15 72.77 40.821
723 1 19.15 72.77 44.532
724 1 19.15 72.77 48.243
725 1 19.15 72.77 51.954
726 1 19.15 72.77 55.665
727 1 19.15 72.77 59.376
728 1 19.15 72.77 63.087
729 1 19.15 72.77 66.798
730 1 19.15 72.77 70.509
731 1 19.15 72.77 74.22
732 1 19.15 72.77 77.931
733 1 19.15 72.77 81.642
734 1 19.15 72.77 85.353
735 1 19.15 72.77 89.064
736 1 19.15 72.77 92.775
737 1 19.15 76.6 33.399
738 1 19.15 76.6 37.11
739 1 19.15 76.6 40.821
740 1 19.15 76.6 44.532
741 1 19.15 76.6 48.243
742 1 19.15 76.6 51.954
743 1 19.15 76.6 55.665
744 1 19.15 76.6 59.376
745 1 19.15 76.6 63.087
746 1 19.15 76.6 66.798
747 1 19.15 76.6 70.509
748 1 19.15 76.6 74.22
749 1 19.15 76.6 77.931
750 1 19.15 76.6 81.642
751 1 19.15 76.6 85.353
752 1 19.15 76.6 89.064
753 1 19.15 80.43 37.11
754 1 19.15 80.43 40.821
755 1 19.15 80.43 44.532
756 1 19.15 80.43 48.243
757 1 19.15 80.43 51.954
758 1 19.15 80.43 55.665
759 1 19.15 80.43 59.376
760 1 19.15 80.43 63.087
761 1 19.15 80.43 66.798
762 1 19.15 80.43 70.509
763 1 19.15 80.43 74.22
764 1 19.15 80.43 77.931
765 1 19.15 80.43 81.642
766 1 19.15 80.43 85.353
767 1 19.15 84.26 40.821
768 1 19.15 84.26 44.532
769 1 19.15 84.26 48.243
770 1 19.15 84.26 51.954
771 1 19.15 84.26 55.665
772 1 19.15 84.26 59.376
773 1 19.15 84.26 63.087
774 1 19.15 84.26 66.798
775 1 19.15 84.26 70.509
776 1 19.15 84.26 74.22
777 1 19.15 84.26 77.931
778 1 19.15 84.26 81.642
779 1 19.15 88.09 44.532
780 1 19.15 88.09 48.243
781 1 19.15 88.09 51.954
782 1 19.15 88.09 55.665
783 1 19.15 88.09 59.376
784 1 19.15 88.09 63.087
785 1 19.15 88.09 66.798
786 1 19.15 88.09 70.509
787 1 19.15 88.09 74.22
788 1 19.15 88.09 77.931
789 1 19.15 91.92 48.243
790 1 19.15 91.92 51.954
791 1 19.15 91.92 55.665
792 1 19.15 91.92 59.376
793 1 19.15 91.92 63.087
794 1 19.15 91.92 66.798
795 1 19.15 91.92 70.509
796 1 19.15 91.92 74.22
797 1 19.15 95.75 51.954
798 1 19.15 95.75 55.665
799 1 19.15 95.75 59.376
800 1 19.15 95.75 63.087
801 1 19.15 95.75 66.798
802 1 19.15 95.75 70.509
803 1 19.15 99.58 59.376
804 1 19.15 99.58 63.087
805 1 22.98 22.98 55.665
806 1 22.98 22.98 59.376
807 1 22.98 22.98 63.087
808 1 22.98 22.98 66.798
809 1 22.98 26.81 51.954
810 1 22.98 26.81 55.665
811 1 22.98 26.81 59.376
812 1 22.98 26.81 63.087
813 1 22.98 26.81 66.798
814 1 22.98 26.81 70.509
815 1 22.98 30.64 48.243
816 1 22.98 30.64 51.954
817 1 22.98 30.64 55.665
818 1 22.98 30.64 59.376
819 1 22.98 30.64 63.087
820 1 22.98 30.64 66.798
821 1 22.98 30.64 70.509
822 1 22.98 30.64 74.22
823 1 22.98 34.47 44.532
824 1 22.98 34.47 48.243
825 1 22.98 34.47 51.954
826 1 22.98 34.47 55.665
827 1 22.98 34.47 59.376
828 1 22.98 34.47 63.087
829 1 22.98 34.47 66.798
830 1 22.98 34.47 70.509
831 1 22.98 34.47 74.22
832 1 22.98 34.47 77.931
833 1 22.98 38.3 40.821
834 1 22.98 38.3 44.532
835 1 22.98 38.3 48.243
836 1 22.98 38.3 51.954
837 1 22.98 38.3 55.665
838 1 22.98 38.3 59.376
839 1 22.98 38.3 63.087
840 1 22.98 38.3 66.798
841 1 22.98 38.3 70.509
842 1 22.98 38.3 74.22
843 1 22.98 38.3 77.931
844 1 22.98 38.3 81.642
845 1 22.98 42.13 37.11
846 1 22.98 42.13 40.821
847 1 22.98 42.13 44.532
848 1 22.98 42.13 48.243
849 1 22.98 42.13 51.954
850 1 22.98 42.13 55.665
851 1 22.98 42.13 59.376
852 1 22.98 42.13 63.087
853 1 22.98 42.13 66.798
854 1 22.98 42.13 70.509
855 1 22.98 42.13 74.22
856 1 22.98 42.13 77.931
857 1 22.98 42.13 81.642
858 1 22.98 42.13 85.353
859 1 22.98 45.96 33.399
860 1 22.98 45.96 37.11
861 1 22.98 45.96 40.821
862 1 22.98 45.96 44.532
863 1 22.98 45.96 48.243
864 1 22.98 45.96 51.954
865 1 22.98 45.96 55.665
866 1 22.98 45.96 59.376
867 1 22.98 45.96 63.087
868 1 22.98 45.96 66.798
869 1 22.98 45.96 70.509
870 1 22.98 45.96 74.22
871 1 22.98 45.96 77.931
872 1 22.98 45.96 81.642
873 1 22.98 45.96 85.353
874 1 22.98 45.96 89.064
875 1 22.98 49.79 29.688
876 1 22.98 49.79 33.399
877 1 22.98 49.79 37.11
878 1 22.98 49.79 40.821
879 1 22.98 49.79 44.532
880 1 22.98 49.79 48.243
881 1 22.98 49.79 51.954
882 1 22.98 49.79 55.665
883 1 22.98 49.79 59.376
884 1 22.98 49.79 63.087
885 1 22.98 49.79 66.798
886 1 22.98 49.79 70.509
887 1 22.98 49.79 74.22
888 1 22.98 49.79 77.931
889 1 22.98 49.79 81.642
890 1 22.98 49.79 85.353
891 1 22.98 49.79 89.064
892 1 22.98 49.79 92.775
893 1 22.98 53.62 25.977
894 1 22.98 53.62 29.688
895 1 22.98 53.62 33.399
896 1 22.98 53.62 37.11
897 1 22.98 53.62 40.821
898 1 22.98 53.62 44.532
899 1 22.98 53.62 48.243
900 1 22.98 53.62 51.954
901 1 22.98 53.62 55.665
902 1 22.98 53.62 59.376
903 1 22.98 53.62 63.087
904 1 22.98 53.62 66.798
905 1 22.98 53.62 70.509
906 1 22.98 53.62 74.22
907 1 22.98 53.62 77.931
908 1 22.98 53.62 81.642
909 1 22.98 53.62 85.353
910 1 22.98 53.62 89.064
911 1 22.98 53.62 92.775
912 1 22.98 53.62 96.486
913 1 22.98 57.45 22.266
914 1 22.98 57.45 25.977
915 1 22.98 57.45 29.688
916 1 22.98 57.45 33.399
917 1 22.98 57.45 37.11
918 1 22.98 57.45 40.821
919 1 22.98 57.45 44.532
920 1 22.98 57.45 48.243
921 1 22.98 57.45 51.954
922 1 22.98 57.45 55.665
923 1 22.98 57.45 59.376
924 1 22.98 57.45 63.087
925 1 22.98 57.45 66.798
926 1 22.98 57.45 70.509
927 1 22.98 57.45 74.22
928 1 22.98 57.45 77.931
929 1 22.98 57.45 81.642
930 1 22.98 57.45 85.353
931 1 22.98 57.45 89.064
932 1 22.98 57.45 92.775
933 1 22.98 57.45 96.486
934 1 22.98 57.45 100.197
935 1 22.98 61.28 22.266
936 1 22.98 61.28 25.977
937 1 22.98 61.28 29.688
938 1 22.98 61.28 33.399
939 1 22.98 61.28 37.11
940 1 22.98 61.28 40.821
941 1 22.98 61.28 44.532
942 1 22.98 61.28 48.243
943 1 22.98 61.28 51.954
944 1 22.98 61.28 55.665
945 1 22.98 61.28 59.376
946 1 22.98 61.28 63.087
947 1 22.98 61.28 66.798
948 1 22.98 61.28 70.509
949 1 22.98 61.28 74.22
950 1 22.98 61.28 77.931
951 1 22.98 61.28 81.642
952 1 22.98 61.28 85.353
953 1 22.98 61.28 89.064
954 1 22.98 61.28 92.775
955 1 22.98 61.28 96.486
956 1 22.98 61.28 100.197
957 1 22.98 65.11 22.266
958 1 22.98 65.11 25.977
959 1 22.98 65.11 29.688
960 1 22.98 65.11 33.399
961 1 22.98 65.11 37.11
962 1 22.98 65.11 40.821
963 1 22.98 65.11 44.532
964 1 22.98 65.11 48.243
965 1 22.98 65.11 51.954
966 1 22.98 65.11 55.665
967 1 22.98 65.11 59.376
968 1 22.98 65.11 63.087
969 1 22.98 65.11 66.798
970 1 22.98 65.11 70.509
971 1 22.98 65.11 74.22
972 1 22.98 65.11 77.931
973 1 22.98 65.11 81.642
974 1 22.98 65.11 85.353
975 1 22.98 65.11 89.064
976 1 22.98 65.11 92.775
977 1 22.98 65.11 96.486
978 1 22.98 65.11 100.197
979 1 22.98 68.94 22.266
980 1 22.98 68.94 25.977
981 1 22.98 68.94 29.688
982 1 22.98 68.94 33.399
983 1 22.98 68.94 37.11
984 1 22.98 68.94 40.821
985 1 22.98 68.94 44.532
986 1 22.98 68.94 48.243
987 1 22.98 68.94 51.954
988 1 22.98 68.94 55.665
989 1 22.98 68.94 59.376
990 1 22.98 68.94 63.087
991 1 22.98 68.94 66.798
992 1 22.98 68.94 70.509
993 1 22.98 68.94 74.22
994 1 22.98 68.94 77.931
995 1 22.98 68.94 81.642
996 1 22.98 68.94 85.353
997 1 22.98 68.94 89.064
998 1 22.98 68.94 92.775
999 1 22.98 68.94 96.486
1000 1 22.98 68.94 100.197
1001 1 22.98 72.77 25.977
1002 1 22.98 72.77 29.688
1003 1 22.98 72.77 33.399
1004 1 22.98 72.77 37.11
1005 1 22.98 72.77 40.821
1006 1 22.98 72.77 44.532
1007 1 22.98 72.77 48.243
1008 1 22.98 72.77 51.954
1009 1 22.98 72.77 55.665
1010 1 22.98 72.77 59.376
1011 1 22.98 72.77 63.087
1012 1 22.98 72.77 66.798
1013 1 22.98 72.77 70.509
1014 1 22.98 72.77 74.22
1015 1 22.98 72.77 77.931
1016 1 22.98 72.77 81.642
1017 1 22.98 72.77 85.353
1018 1 22.98 72.77 89.064
1019 1 22.98 72.77 92.775
1020 1 22.98 72.77 96.486
1021 1 22.98 76.6 29.688
1022 1 22.98 76.6 33.399
1023 1 22.98 76.6 37.11
1024 1 22.98 76.6 40.821
1025 1 22.98 76.6 44.532
1026 1 22.98 76.6 48.243
1027 1 22.98 76.6 51.954
1028 1 22.98 76.6 55.665
1029 1 22.98 76.6 59.376
1030 1 22.98 76.6 63.087
1031 1 22.98 76.6 66.798
1032 1 22.98 76.6 70.509
1033 1 22.98 76.6 74.22
1034 1 22.98 76.6 77.931
1035 1 22.98 76.6 81.642
1036 1 22.98 76.6 85.353
1037 1 22.98 76.6 89.064
1038 1 22.98 76.6 92.775
1039 1 22.98 80.43 33.399
1040 1 22.98 80.43 37.11
1041 1 22.98 80.43 40.821
1042 1 22.98 80.43 44.532
1043 1 22.98 80.43 48.243
1044 1 22.98 80.43 51.954
1045 1 22.98 80.43 55.665
1046 1 22.98 80.43 59.376
1047 1 22.98 80.43 63.087
1048 1 22.98 80.43 66.798
1049 1 22.98 80.43 70.509
1050 1 22.98 80.43 74.22
1051 1 22.98 80.43 77.931
1052 1 22.98 80.43 81.642
1053 1 22.98 80.43 85.353
1054 1 22.98 80.43 89.064
1055 1 22.98 84.26 37.11
1056 1 22.98 84.26 40.821
1057 1 22.98 84.26 44.532
1058 1 22.98 84.26 48.243
1059 1 22.98 84.26 51.954
1060 1 22.98 84.26 55.665
1061 1 22.98 84.26 59.376
1062 1 22.98 84.26 63.087
1063 1 22.98 84.26 66.798
1064 1 22.98 84.26 70.509
1065 1 22.98 84.26 74.22
1066 1 22.98 84.26 77.931
1067 1 22.98 84.26 81.642
1068 1 22.98 84.26 85.353
1069 1 22.98 88.09 40.821
1070 1 22.98 88.09 44.532
1071 1 22.98 88.09 48.243
1072 1 22.98 88.09 51.954
1073 1 22.98 88.09 55.665
1074 1 22.98 88.09 59.376
1075 1 22.98 88.09 63.087
1076 1 22.98 88.09 66.798
1077 1 22.98 88.09 70.509
1078 1 22.98 88.09 74.22
1079 1 22.98 88.09 77.931
1080 1 22.98 88.09 81.642
1081 1 22.98 91.92 44.532
1082 1 22.98 91.92 48.243
1083 1 22.98 91.92 51.954
1084 1 22.98 91.92 55.665
1085 1 22.98 91.92 59.376
1086 1 22.98 91.92 63.087
1087 1 22.98 91.92 66.798
1088 1 22.98 91.92 70.509
1089 1 22.98 91.92 74.22
1090 1 22.98 91.92 77.931
1091 1 22.98 95.75 48.243
1092 1 22.98 95.75 51.954
1093 1 22.98 95.75 55.665
1094 1 22.98 95.75 59.376
1095 1 22.98 95.75 63.087
1096 1 22.98 95.75 66.798
1097 1 22.98 95.75 70.509
1098 1 22.98 95.75 74.22
1099 1 22.98 99.58 51.954
1100 1 22.98 99.58 55.665
1101 1 22.98 99.58 59.376
1102 1 22.98 99.58 63.087
1103 1 22.98 99.58 66.798
1104 1 22.98 99.58 70.509
1105 1 22.98 103.41 55.665
1106 1 22.98 103.41 59.376
1107 1 22.98 103.41 63.087
1108 1 22.98 103.41 66.798
1109 1 26.81 19.15 59.376
1110 1 26.81 19.15 63.087
1111 1 26.81 22.98 51.954
1112 1 26.81 22.98 55.665
1113 1 26.81 22.98 59.376
1114 1 26.81 22.98 63.087
1115 1 26.81 22.98 66.798
1116 1 26.81 22.98 70.509
1117 1 26.81 26.81 48.243
1118 1 26.81 26.81 51.954
1119 1 26.81 26.81 55.665
1120 1 26.81 26.81 59.376
1121 1 26.81 26.81 63.087
1122 1 26.81 26.81 66.798
1123 1 26.81 26.81 70.509
1124 1 26.81 26.81 74.22
1125 1 26.81 30.64 44.532
1126 1 26.81 30.64 48.243
1127 1 26.81 30.64 51.954
1128 1 26.81 30.64 55.665
1129 1 26.81 30.64 59.376
1130 1 26.81 30.64 63.087
1131 1 26.81 30.64 66.798
1132 1 26.81 30.64 70.509
1133 1 26.81 30.64 74.22
1134 1 26.81 30.64 77.931
1135 1 26.81 34.47 40.821
1136 1 26.81 34.47 44.532
1137 1 26.81 34.47 48.243
1138 1 26.81 34.47 51.954
1139 1 26.81 34.47 55.665
1140 1 26.81 34.47 59.376
1141 1 26.81 34.47 63.087
1142 1 26.81 34.47 66.798
1143 1 26.81 34.47 70.509
1144 1 26.81 34.47 74.22
1145 1 26.81 34.47 77.931
1146 1 26.81 34.47 81.642
1147 1 26.81 38.3 37.11
1148 1 26.81 38.3 40.821
1149 1 26.81 38.3 44.532
1150 1 26.81 38.3 48.243
1151 1 26.81 38.3 51.954
1152 1 26.81 38.3 55.665
1153 1 26.81 38.3 59.376
1154 1 26.81 38.3 63.087
1155 1 26.81 38.3 66.798
1156 1 26.81 38.3 70.509
1157 1 26.81 38.3 74.22
1158 1 26.81 38.3 77.931
1159 1 26.81 38.3 81.642
1160 1 26.81 38.3 85.353
1161 1 26.81 42.13 33.399
1162 1 26.81 42.13 37.11
1163 1 26.81 42.13 40.821
1164 1 26.81 42.13 44.532
1165 1 26.81 42.13 48.243
1166 1 26.81 42.13 51.954
1167 1 26.81 42.13 55.665
1168 1 26.81 42.13 59.376
1169 1 26.81 42.13 63.087
1170 1 26.81 42.13 66.798
1171 1 26.81 42.13 70.509
1172 1 26.81 42.13 74.22
1173 1 26.81 42.13 77.931
1174 1 26.81 42.13 81.642
1175 1 26.81 42.13 85.353
1176 1 26.81 42.13 89.064
1177 1 26.81 45.96 29.688
1178 1 26.81 45.96 33.399
1179 1 26.81 45.96 37.11
1180 1 26.81 45.96 40.821
1181 1 26.81 45.96 44.532
1182 1 26.81 45.96 48.243
1183 1 26.81 45.96 51.954
1184 1 26.81 45.96 55.665
1185 1 26.81 45.96 59.376
1186 1 26.81 45.96 63.087
1187 1 26.81 45.96 66.798
1188 1 26.81 45.96 70.509
1189 1 26.81 45.96 74.22
1190 1 26.81 45.96 77.931
1191 1 26.81 45.96 81.642
1192 1 26.81 45.96 85.353
1193 1 26.81 45.96 89.064
1194 1 26.81 45.96 92.775
1195 1 26.81 49.79 25.977
1196 1 26.81 49.79 29.688
1197 1 26.81 49.79 33.399
1198 1 26.81 49.79 37.11
1199 1 26.81 49.79 40.821
1200 1 26.81 49.79 44.532
1201 1 26.81 49.79 48.243
1202 1 26.81 49.79 51.954
1203 1 26.81 49.79 55.665
1204 1 26.81 49.79 59.376
1205 1 26.81 49.79 63.087
1206 1 26.81 49.79 66.798