LAMMPS_Input_Grains/80000_Atom_Target_Ratio_1.0_unperfect_grain

74912 atoms
2 atom types
0 191.5 xlo xhi
0 191.5 ylo yhi
0 185.54999999999998 zlo zhi
0.0 0.0 0.0 xy xz yz

Atoms

1 1 7.66 95.75 92.775
2 1 11.49 91.92 92.775
3 1 11.49 95.75 89.064
4 1 11.49 95.75 92.775
5 1 11.49 95.75 96.486
6 1 11.49 99.58 92.775
7 1 15.32 88.09 92.775
8 1 15.32 91.92 89.064
9 1 15.32 91.92 92.775
10 1 15.32 91.92 96.486
11 1 15.32 95.75 85.353
12 1 15.32 95.75 89.064
13 1 15.32 95.75 92.775
14 1 15.32 95.75 96.486
15 1 15.32 95.75 100.197
16 1 15.32 99.58 89.064
17 1 15.32 99.58 92.775
18 1 15.32 99.58 96.486
19 1 15.32 103.41 92.775
20 1 19.15 84.26 92.775
21 1 19.15 88.09 89.064
22 1 19.15 88.09 92.775
23 1 19.15 88.09 96.486
24 1 19.15 91.92 85.353
25 1 19.15 91.92 89.064
26 1 19.15 91.92 92.775
27 1 19.15 91.92 96.486
28 1 19.15 91.92 100.197
29 1 19.15 95.75 81.642
30 1 19.15 95.75 85.353
31 1 19.15 95.75 89.064
32 1 19.15 95.75 92.775
33 1 19.15 95.75 96.486
34 1 19.15 95.75 100.197
35 1 19.15 95.75 103.908
36 1 19.15 99.58 85.353
37 1 19.15 99.58 89.064
38 1 19.15 99.58 92.775
39 1 19.15 99.58 96.486
40 1 19.15 99.58 100.197
41 1 19.15 103.41 89.064
42 1 19.15 103.41 92.775
43 1 19.15 103.41 96.486
44 1 19.15 107.24 92.775
45 1 22.98 80.43 92.775
46 1 22.98 84.26 89.064
47 1 22.98 84.26 92.775
48 1 22.98 84.26 96.486
49 1 22.98 88.09 85.353
50 1 22.98 88.09 89.064
51 1 22.98 88.09 92.775
52 1 22.98 88.09 96.486
53 1 22.98 88.09 100.197
54 1 22.98 91.92 81.642
55 1 22.98 91.92 85.353
56 1 22.98 91.92 89.064
57 1 22.98 91.92 92.775
58 1 22.98 91.92 96.486
59 1 22.98 91.92 100.197
60 1 22.98 91.92 103.908
61 1 22.98 95.75 77.931
62 1 22.98 95.75 81.642
63 1 22.98 95.75 85.353
64 1 22.98 95.75 89.064
65 1 22.98 95.75 92.775
66 1 22.98 95.75 96.486
67 1 22.98 95.75 100.197
68 1 22.98 95.75 103.908
69 1 22.98 95.75 107.619
70 1 22.98 99.58 81.642
71 1 22.98 99.58 85.353
72 1 22.98 99.58 89.064
73 1 22.98 99.58 92.775
74 1 22.98 99.58 96.486
75 1 22.98 99.58 100.197
76 1 22.98 99.58 103.908
77 1 22.98 103.41 85.353
78 1 22.98 103.41 89.064
79 1 22.98 103.41 92.775
80 1 22.98 103.41 96.486
81 1 22.98 103.41 100.197
82 1 22.98 107.24 89.064
83 1 22.98 107.24 92.775
84 1 22.98 107.24 96.486
85 1 22.98 111.07 92.775
86 1 26.81 76.6 92.775
87 1 26.81 80.43 89.064
88 1 26.81 80.43 92.775
89 1 26.81 80.43 96.486
90 1 26.81 84.26 85.353
91 1 26.81 84.26 89.064
92 1 26.81 84.26 92.775
93 1 26.81 84.26 96.486
94 1 26.81 84.26 100.197
95 1 26.81 88.09 81.642
96 1 26.81 88.09 85.353
97 1 26.81 88.09 89.064
98 1 26.81 88.09 92.775
99 1 26.81 88.09 96.486
100 1 26.81 88.09 100.197
101 1 26.81 88.09 103.908
102 1 26.81 91.92 77.931
103 1 26.81 91.92 81.642
104 1 26.81 91.92 85.353
105 1 26.81 91.92 89.064
106 1 26.81 91.92 92.775
107 1 26.81 91.92 96.486
108 1 26.81 91.92 100.197
109 1 26.81 91.92 103.908
110 1 26.81 91.92 107.619
111 1 26.81 95.75 74.22
112 1 26.81 95.75 77.931
113 1 26.81 95.75 81.642
114 1 26.81 95.75 85.353
115 1 26.81 95.75 89.064
116 1 26.81 95.75 92.775
117 1 26.81 95.75 96.486
118 1 26.81 95.75 100.197
119 1 26.81 95.75 103.908
120 1 26.81 95.75 107.619
121 1 26.81 95.75 111.33
122 1 26.81 99.58 77.931
123 1 26.81 99.58 81.642
124 1 26.81 99.58 85.353
125 1 26.81 99.58 89.064
126 1 26.81 99.58 92.775
127 1 26.81 99.58 96.486
128 1 26.81 99.58 100.197
129 1 26.81 99.58 103.908
130 1 26.81 99.58 107.619
131 1 26.81 103.41 81.642
132 1 26.81 103.41 85.353
133 1 26.81 103.41 89.064
134 1 26.81 103.41 92.775
135 1 26.81 103.41 96.486
136 1 26.81 103.41 100.197
137 1 26.81 103.41 103.908
138 1 26.81 107.24 85.353
139 1 26.81 107.24 89.064
140 1 26.81 107.24 92.775
141 1 26.81 107.24 96.486
142 1 26.81 107.24 100.197
143 1 26.81 111.07 89.064
144 1 26.81 111.07 92.775
145 1 26.81 111.07 96.486
146 1 26.81 114.9 92.775
147 1 30.64 72.77 92.775
148 1 30.64 76.6 89.064
149 1 30.64 76.6 92.775
150 1 30.64 76.6 96.486
151 1 30.64 80.43 81.642
152 1 30.64 80.43 85.353
153 1 30.64 80.43 89.064
154 1 30.64 80.43 92.775
155 1 30.64 80.43 96.486
156 1 30.64 80.43 100.197
157 1 30.64 80.43 103.908
158 1 30.64 84.26 77.931
159 1 30.64 84.26 81.642
160 1 30.64 84.26 85.353
161 1 30.64 84.26 89.064
162 1 30.64 84.26 92.775
163 1 30.64 84.26 96.486
164 1 30.64 84.26 100.197
165 1 30.64 84.26 103.908
166 1 30.64 84.26 107.619
167 1 30.64 88.09 77.931
168 1 30.64 88.09 81.642
169 1 30.64 88.09 85.353
170 1 30.64 88.09 89.064
171 1 30.64 88.09 92.775
172 1 30.64 88.09 96.486
173 1 30.64 88.09 100.197
174 1 30.64 88.09 103.908
175 1 30.64 88.09 107.619
176 1 30.64 91.92 74.22
177 1 30.64 91.92 77.931
178 1 30.64 91.92 81.642
179 1 30.64 91.92 85.353
180 1 30.64 91.92 89.064
181 1 30.64 91.92 92.775
182 1 30.64 91.92 96.486
183 1 30.64 91.92 100.197
184 1 30.64 91.92 103.908
185 1 30.64 91.92 107.619
186 1 30.64 91.92 111.33
187 1 30.64 95.75 70.509
188 1 30.64 95.75 74.22
189 1 30.64 95.75 77.931
190 1 30.64 95.75 81.642
191 1 30.64 95.75 85.353
192 1 30.64 95.75 89.064
193 1 30.64 95.75 92.775
194 1 30.64 95.75 96.486
195 1 30.64 95.75 100.197
196 1 30.64 95.75 103.908
197 1 30.64 95.75 107.619
198 1 30.64 95.75 111.33
199 1 30.64 95.75 115.041
200 1 30.64 99.58 74.22
201 1 30.64 99.58 77.931
202 1 30.64 99.58 81.642
203 1 30.64 99.58 85.353
204 1 30.64 99.58 89.064
205 1 30.64 99.58 92.775
206 1 30.64 99.58 96.486
207 1 30.64 99.58 100.197
208 1 30.64 99.58 103.908
209 1 30.64 99.58 107.619
210 1 30.64 99.58 111.33
211 1 30.64 103.41 77.931
212 1 30.64 103.41 81.642
213 1 30.64 103.41 85.353
214 1 30.64 103.41 89.064
215 1 30.64 103.41 92.775
216 1 30.64 103.41 96.486
217 1 30.64 103.41 100.197
218 1 30.64 103.41 103.908
219 1 30.64 103.41 107.619
220 1 30.64 107.24 77.931
221 1 30.64 107.24 81.642
222 1 30.64 107.24 85.353
223 1 30.64 107.24 89.064
224 1 30.64 107.24 92.775
225 1 30.64 107.24 96.486
226 1 30.64 107.24 100.197
227 1 30.64 107.24 103.908
228 1 30.64 107.24 107.619
229 1 30.64 111.07 81.642
230 1 30.64 111.07 85.353
231 1 30.64 111.07 89.064
232 1 30.64 111.07 92.775
233 1 30.64 111.07 96.486
234 1 30.64 111.07 100.197
235 1 30.64 111.07 103.908
236 1 30.64 114.9 89.064
237 1 30.64 114.9 92.775
238 1 30.64 114.9 96.486
239 1 30.64 118.73 92.775
240 1 34.47 68.94 92.775
241 1 34.47 72.77 85.353
242 1 34.47 72.77 89.064
243 1 34.47 72.77 92.775
244 1 34.47 72.77 96.486
245 1 34.47 72.77 100.197
246 1 34.47 76.6 81.642
247 1 34.47 76.6 85.353
248 1 34.47 76.6 89.064
249 1 34.47 76.6 92.775
250 1 34.47 76.6 96.486
251 1 34.47 76.6 100.197
252 1 34.47 76.6 103.908
253 1 34.47 80.43 77.931
254 1 34.47 80.43 81.642
255 1 34.47 80.43 85.353
256 1 34.47 80.43 89.064
257 1 34.47 80.43 92.775
258 1 34.47 80.43 96.486
259 1 34.47 80.43 100.197
260 1 34.47 80.43 103.908
261 1 34.47 80.43 107.619
262 1 34.47 84.26 74.22
263 1 34.47 84.26 77.931
264 1 34.47 84.26 81.642
265 1 34.47 84.26 85.353
266 1 34.47 84.26 89.064
267 1 34.47 84.26 92.775
268 1 34.47 84.26 96.486
269 1 34.47 84.26 100.197
270 1 34.47 84.26 103.908
271 1 34.47 84.26 107.619
272 1 34.47 84.26 111.33
273 1 34.47 88.09 70.509
274 1 34.47 88.09 74.22
275 1 34.47 88.09 77.931
276 1 34.47 88.09 81.642
277 1 34.47 88.09 85.353
278 1 34.47 88.09 89.064
279 1 34.47 88.09 92.775
280 1 34.47 88.09 96.486
281 1 34.47 88.09 100.197
282 1 34.47 88.09 103.908
283 1 34.47 88.09 107.619
284 1 34.47 88.09 111.33
285 1 34.47 88.09 115.041
286 1 34.47 91.92 70.509
287 1 34.47 91.92 74.22
288 1 34.47 91.92 77.931
289 1 34.47 91.92 81.642
290 1 34.47 91.92 85.353
291 1 34.47 91.92 89.064
292 1 34.47 91.92 92.775
293 1 34.47 91.92 96.486
294 1 34.47 91.92 100.197
295 1 34.47 91.92 103.908
296 1 34.47 91.92 107.619
297 1 34.47 91.92 111.33
298 1 34.47 91.92 115.041
299 1 34.47 95.75 66.798
300 1 34.47 95.75 70.509
301 1 34.47 95.75 74.22
302 1 34.47 95.75 77.931
303 1 34.47 95.75 81.642
304 1 34.47 95.75 85.353
305 1 34.47 95.75 89.064
306 1 34.47 95.75 92.775
307 1 34.47 95.75 96.486
308 1 34.47 95.75 100.197
309 1 34.47 95.75 103.908
310 1 34.47 95.75 107.619
311 1 34.47 95.75 111.33
312 1 34.47 95.75 115.041
313 1 34.47 95.75 118.752
314 1 34.47 99.58 70.509
315 1 34.47 99.58 74.22
316 1 34.47 99.58 77.931
317 1 34.47 99.58 81.642
318 1 34.47 99.58 85.353
319 1 34.47 99.58 89.064
320 1 34.47 99.58 92.775
321 1 34.47 99.58 96.486
322 1 34.47 99.58 100.197
323 1 34.47 99.58 103.908
324 1 34.47 99.58 107.619
325 1 34.47 99.58 111.33
326 1 34.47 99.58 115.041
327 1 34.47 103.41 70.509
328 1 34.47 103.41 74.22
329 1 34.47 103.41 77.931
330 1 34.47 103.41 81.642
331 1 34.47 103.41 85.353
332 1 34.47 103.41 89.064
333 1 34.47 103.41 92.775
334 1 34.47 103.41 96.486
335 1 34.47 103.41 100.197
336 1 34.47 103.41 103.908
337 1 34.47 103.41 107.619
338 1 34.47 103.41 111.33
339 1 34.47 103.41 115.041
340 1 34.47 107.24 74.22
341 1 34.47 107.24 77.931
342 1 34.47 107.24 81.642
343 1 34.47 107.24 85.353
344 1 34.47 107.24 89.064
345 1 34.47 107.24 92.775
346 1 34.47 107.24 96.486
347 1 34.47 107.24 100.197
348 1 34.47 107.24 103.908
349 1 34.47 107.24 107.619
350 1 34.47 107.24 111.33
351 1 34.47 111.07 77.931
352 1 34.47 111.07 81.642
353 1 34.47 111.07 85.353
354 1 34.47 111.07 89.064
355 1 34.47 111.07 92.775
356 1 34.47 111.07 96.486
357 1 34.47 111.07 100.197
358 1 34.47 111.07 103.908
359 1 34.47 111.07 107.619
360 1 34.47 114.9 81.642
361 1 34.47 114.9 85.353
362 1 34.47 114.9 89.064
363 1 34.47 114.9 92.775
364 1 34.47 114.9 96.486
365 1 34.47 114.9 100.197
366 1 34.47 114.9 103.908
367 1 34.47 118.73 85.353
368 1 34.47 118.73 89.064
369 1 34.47 118.73 92.775
370 1 34.47 118.73 96.486
371 1 34.47 118.73 100.197
372 1 34.47 122.56 92.775
373 1 38.3 65.11 92.775
374 1 38.3 68.94 85.353
375 1 38.3 68.94 89.064
376 1 38.3 68.94 92.775
377 1 38.3 68.94 96.486
378 1 38.3 68.94 100.197
379 1 38.3 72.77 81.642
380 1 38.3 72.77 85.353
381 1 38.3 72.77 89.064
382 1 38.3 72.77 92.775
383 1 38.3 72.77 96.486
384 1 38.3 72.77 100.197
385 1 38.3 72.77 103.908
386 1 38.3 76.6 77.931
387 1 38.3 76.6 81.642
388 1 38.3 76.6 85.353
389 1 38.3 76.6 89.064
390 1 38.3 76.6 92.775
391 1 38.3 76.6 96.486
392 1 38.3 76.6 100.197
393 1 38.3 76.6 103.908
394 1 38.3 76.6 107.619
395 1 38.3 80.43 74.22
396 1 38.3 80.43 77.931
397 1 38.3 80.43 81.642
398 1 38.3 80.43 85.353
399 1 38.3 80.43 89.064
400 1 38.3 80.43 92.775
401 1 38.3 80.43 96.486
402 1 38.3 80.43 100.197
403 1 38.3 80.43 103.908
404 1 38.3 80.43 107.619
405 1 38.3 80.43 111.33
406 1 38.3 84.26 70.509
407 1 38.3 84.26 74.22
408 1 38.3 84.26 77.931
409 1 38.3 84.26 81.642
410 1 38.3 84.26 85.353
411 1 38.3 84.26 89.064
412 1 38.3 84.26 92.775
413 1 38.3 84.26 96.486
414 1 38.3 84.26 100.197
415 1 38.3 84.26 103.908
416 1 38.3 84.26 107.619
417 1 38.3 84.26 111.33
418 1 38.3 84.26 115.041
419 1 38.3 88.09 66.798
420 1 38.3 88.09 70.509
421 1 38.3 88.09 74.22
422 1 38.3 88.09 77.931
423 1 38.3 88.09 81.642
424 1 38.3 88.09 85.353
425 1 38.3 88.09 89.064
426 1 38.3 88.09 92.775
427 1 38.3 88.09 96.486
428 1 38.3 88.09 100.197
429 1 38.3 88.09 103.908
430 1 38.3 88.09 107.619
431 1 38.3 88.09 111.33
432 1 38.3 88.09 115.041
433 1 38.3 88.09 118.752
434 1 38.3 91.92 66.798
435 1 38.3 91.92 70.509
436 1 38.3 91.92 74.22
437 1 38.3 91.92 77.931
438 1 38.3 91.92 81.642
439 1 38.3 91.92 85.353
440 1 38.3 91.92 89.064
441 1 38.3 91.92 92.775
442 1 38.3 91.92 96.486
443 1 38.3 91.92 100.197
444 1 38.3 91.92 103.908
445 1 38.3 91.92 107.619
446 1 38.3 91.92 111.33
447 1 38.3 91.92 115.041
448 1 38.3 91.92 118.752
449 1 38.3 95.75 63.087
450 1 38.3 95.75 66.798
451 1 38.3 95.75 70.509
452 1 38.3 95.75 74.22
453 1 38.3 95.75 77.931
454 1 38.3 95.75 81.642
455 1 38.3 95.75 85.353
456 1 38.3 95.75 89.064
457 1 38.3 95.75 92.775
458 1 38.3 95.75 96.486
459 1 38.3 95.75 100.197
460 1 38.3 95.75 103.908
461 1 38.3 95.75 107.619
462 1 38.3 95.75 111.33
463 1 38.3 95.75 115.041
464 1 38.3 95.75 118.752
465 1 38.3 95.75 122.463
466 1 38.3 99.58 66.798
467 1 38.3 99.58 70.509
468 1 38.3 99.58 74.22
469 1 38.3 99.58 77.931
470 1 38.3 99.58 81.642
471 1 38.3 99.58 85.353
472 1 38.3 99.58 89.064
473 1 38.3 99.58 92.775
474 1 38.3 99.58 96.486
475 1 38.3 99.58 100.197
476 1 38.3 99.58 103.908
477 1 38.3 99.58 107.619
478 1 38.3 99.58 111.33
479 1 38.3 99.58 115.041
480 1 38.3 99.58 118.752
481 1 38.3 103.41 66.798
482 1 38.3 103.41 70.509
483 1 38.3 103.41 74.22
484 1 38.3 103.41 77.931
485 1 38.3 103.41 81.642
486 1 38.3 103.41 85.353
487 1 38.3 103.41 89.064
488 1 38.3 103.41 92.775
489 1 38.3 103.41 96.486
490 1 38.3 103.41 100.197
491 1 38.3 103.41 103.908
492 1 38.3 103.41 107.619
493 1 38.3 103.41 111.33
494 1 38.3 103.41 115.041
495 1 38.3 103.41 118.752
496 1 38.3 107.24 70.509
497 1 38.3 107.24 74.22
498 1 38.3 107.24 77.931
499 1 38.3 107.24 81.642
500 1 38.3 107.24 85.353
501 1 38.3 107.24 89.064
502 1 38.3 107.24 92.775
503 1 38.3 107.24 96.486
504 1 38.3 107.24 100.197
505 1 38.3 107.24 103.908
506 1 38.3 107.24 107.619
507 1 38.3 107.24 111.33
508 1 38.3 107.24 115.041
509 1 38.3 111.07 74.22
510 1 38.3 111.07 77.931
511 1 38.3 111.07 81.642
512 1 38.3 111.07 85.353
513 1 38.3 111.07 89.064
514 1 38.3 111.07 92.775
515 1 38.3 111.07 96.486
516 1 38.3 111.07 100.197
517 1 38.3 111.07 103.908
518 1 38.3 111.07 107.619
519 1 38.3 111.07 111.33
520 1 38.3 114.9 77.931
521 1 38.3 114.9 81.642
522 1 38.3 114.9 85.353
523 1 38.3 114.9 89.064
524 1 38.3 114.9 92.775
525 1 38.3 114.9 96.486
526 1 38.3 114.9 100.197
527 1 38.3 114.9 103.908
528 1 38.3 114.9 107.619
529 1 38.3 118.73 81.642
530 1 38.3 118.73 85.353
531 1 38.3 118.73 89.064
532 1 38.3 118.73 92.775
533 1 38.3 118.73 96.486
534 1 38.3 118.73 100.197
535 1 38.3 118.73 103.908
536 1 38.3 122.56 85.353
537 1 38.3 122.56 89.064
538 1 38.3 122.56 92.775
539 1 38.3 122.56 96.486
540 1 38.3 122.56 100.197
541 1 38.3 126.39 92.775
542 1 42.13 61.28 92.775
543 1 42.13 65.11 85.353
544 1 42.13 65.11 89.064
545 1 42.13 65.11 92.775
546 1 42.13 65.11 96.486
547 1 42.13 65.11 100.197
548 1 42.13 68.94 81.642
549 1 42.13 68.94 85.353
550 1 42.13 68.94 89.064
551 1 42.13 68.94 92.775
552 1 42.13 68.94 96.486
553 1 42.13 68.94 100.197
554 1 42.13 68.94 103.908
555 1 42.13 72.77 77.931
556 1 42.13 72.77 81.642
557 1 42.13 72.77 85.353
558 1 42.13 72.77 89.064
559 1 42.13 72.77 92.775
560 1 42.13 72.77 96.486
561 1 42.13 72.77 100.197
562 1 42.13 72.77 103.908
563 1 42.13 72.77 107.619
564 1 42.13 76.6 74.22
565 1 42.13 76.6 77.931
566 1 42.13 76.6 81.642
567 1 42.13 76.6 85.353
568 1 42.13 76.6 89.064
569 1 42.13 76.6 92.775
570 1 42.13 76.6 96.486
571 1 42.13 76.6 100.197
572 1 42.13 76.6 103.908
573 1 42.13 76.6 107.619
574 1 42.13 76.6 111.33
575 1 42.13 80.43 70.509
576 1 42.13 80.43 74.22
577 1 42.13 80.43 77.931
578 1 42.13 80.43 81.642
579 1 42.13 80.43 85.353
580 1 42.13 80.43 89.064
581 1 42.13 80.43 92.775
582 1 42.13 80.43 96.486
583 1 42.13 80.43 100.197
584 1 42.13 80.43 103.908
585 1 42.13 80.43 107.619
586 1 42.13 80.43 111.33
587 1 42.13 80.43 115.041
588 1 42.13 84.26 66.798
589 1 42.13 84.26 70.509
590 1 42.13 84.26 74.22
591 1 42.13 84.26 77.931
592 1 42.13 84.26 81.642
593 1 42.13 84.26 85.353
594 1 42.13 84.26 89.064
595 1 42.13 84.26 92.775
596 1 42.13 84.26 96.486
597 1 42.13 84.26 100.197
598 1 42.13 84.26 103.908
599 1 42.13 84.26 107.619
600 1 42.13 84.26 111.33
601 1 42.13 84.26 115.041
602 1 42.13 84.26 118.752
603 1 42.13 88.09 63.087
604 1 42.13 88.09 66.798
605 1 42.13 88.09 70.509
606 1 42.13 88.09 74.22
607 1 42.13 88.09 77.931
608 1 42.13 88.09 81.642
609 1 42.13 88.09 85.353
610 1 42.13 88.09 89.064
611 1 42.13 88.09 92.775
612 1 42.13 88.09 96.486
613 1 42.13 88.09 100.197
614 1 42.13 88.09 103.908
615 1 42.13 88.09 107.619
616 1 42.13 88.09 111.33
617 1 42.13 88.09 115.041
618 1 42.13 88.09 118.752
619 1 42.13 88.09 122.463
620 1 42.13 91.92 63.087
621 1 42.13 91.92 66.798
622 1 42.13 91.92 70.509
623 1 42.13 91.92 74.22
624 1 42.13 91.92 77.931
625 1 42.13 91.92 81.642
626 1 42.13 91.92 85.353
627 1 42.13 91.92 89.064
628 1 42.13 91.92 92.775
629 1 42.13 91.92 96.486
630 1 42.13 91.92 100.197
631 1 42.13 91.92 103.908
632 1 42.13 91.92 107.619
633 1 42.13 91.92 111.33
634 1 42.13 91.92 115.041
635 1 42.13 91.92 118.752
636 1 42.13 91.92 122.463
637 1 42.13 95.75 59.376
638 1 42.13 95.75 63.087
639 1 42.13 95.75 66.798
640 1 42.13 95.75 70.509
641 1 42.13 95.75 74.22
642 1 42.13 95.75 77.931
643 1 42.13 95.75 81.642
644 1 42.13 95.75 85.353
645 1 42.13 95.75 89.064
646 1 42.13 95.75 92.775
647 1 42.13 95.75 96.486
648 1 42.13 95.75 100.197
649 1 42.13 95.75 103.908
650 1 42.13 95.75 107.619
651 1 42.13 95.75 111.33
652 1 42.13 95.75 115.041
653 1 42.13 95.75 118.752
654 1 42.13 95.75 122.463
655 1 42.13 95.75 126.174
656 1 42.13 99.58 63.087
657 1 42.13 99.58 66.798
658 1 42.13 99.58 70.509
659 1 42.13 99.58 74.22
660 1 42.13 99.58 77.931
661 1 42.13 99.58 81.642
662 1 42.13 99.58 85.353
663 1 42.13 99.58 89.064
664 1 42.13 99.58 92.775
665 1 42.13 99.58 96.486
666 1 42.13 99.58 100.197
667 1 42.13 99.58 103.908
668 1 42.13 99.58 107.619
669 1 42.13 99.58 111.33
670 1 42.13 99.58 115.041
671 1 42.13 99.58 118.752
672 1 42.13 99.58 122.463
673 1 42.13 103.41 63.087
674 1 42.13 103.41 66.798
675 1 42.13 103.41 70.509
676 1 42.13 103.41 74.22
677 1 42.13 103.41 77.931
678 1 42.13 103.41 81.642
679 1 42.13 103.41 85.353
680 1 42.13 103.41 89.064
681 1 42.13 103.41 92.775
682 1 42.13 103.41 96.486
683 1 42.13 103.41 100.197
684 1 42.13 103.41 103.908
685 1 42.13 103.41 107.619
686 1 42.13 103.41 111.33
687 1 42.13 103.41 115.041
688 1 42.13 103.41 118.752
689 1 42.13 103.41 122.463
690 1 42.13 107.24 66.798
691 1 42.13 107.24 70.509
692 1 42.13 107.24 74.22
693 1 42.13 107.24 77.931
694 1 42.13 107.24 81.642
695 1 42.13 107.24 85.353
696 1 42.13 107.24 89.064
697 1 42.13 107.24 92.775
698 1 42.13 107.24 96.486
699 1 42.13 107.24 100.197
700 1 42.13 107.24 103.908
701 1 42.13 107.24 107.619
702 1 42.13 107.24 111.33
703 1 42.13 107.24 115.041
704 1 42.13 107.24 118.752
705 1 42.13 111.07 70.509
706 1 42.13 111.07 74.22
707 1 42.13 111.07 77.931
708 1 42.13 111.07 81.642
709 1 42.13 111.07 85.353
710 1 42.13 111.07 89.064
711 1 42.13 111.07 92.775
712 1 42.13 111.07 96.486
713 1 42.13 111.07 100.197
714 1 42.13 111.07 103.908
715 1 42.13 111.07 107.619
716 1 42.13 111.07 111.33
717 1 42.13 111.07 115.041
718 1 42.13 114.9 74.22
719 1 42.13 114.9 77.931
720 1 42.13 114.9 81.642
721 1 42.13 114.9 85.353
722 1 42.13 114.9 89.064
723 1 42.13 114.9 92.775
724 1 42.13 114.9 96.486
725 1 42.13 114.9 100.197
726 1 42.13 114.9 103.908
727 1 42.13 114.9 107.619
728 1 42.13 114.9 111.33
729 1 42.13 118.73 77.931
730 1 42.13 118.73 81.642
731 1 42.13 118.73 85.353
732 1 42.13 118.73 89.064
733 1 42.13 118.73 92.775
734 1 42.13 118.73 96.486
735 1 42.13 118.73 100.197
736 1 42.13 118.73 103.908
737 1 42.13 118.73 107.619
738 1 42.13 122.56 81.642
739 1 42.13 122.56 85.353
740 1 42.13 122.56 89.064
741 1 42.13 122.56 92.775
742 1 42.13 122.56 96.486
743 1 42.13 122.56 100.197
744 1 42.13 122.56 103.908
745 1 42.13 126.39 85.353
746 1 42.13 126.39 89.064
747 1 42.13 126.39 92.775
748 1 42.13 126.39 96.486
749 1 42.13 126.39 100.197
750 1 42.13 130.22 92.775
751 1 45.96 57.45 89.064
752 1 45.96 57.45 92.775
753 1 45.96 57.45 96.486
754 1 45.96 61.28 85.353
755 1 45.96 61.28 89.064
756 1 45.96 61.28 92.775
757 1 45.96 61.28 96.486
758 1 45.96 61.28 100.197
759 1 45.96 65.11 81.642
760 1 45.96 65.11 85.353
761 1 45.96 65.11 89.064
762 1 45.96 65.11 92.775
763 1 45.96 65.11 96.486
764 1 45.96 65.11 100.197
765 1 45.96 65.11 103.908
766 1 45.96 68.94 77.931
767 1 45.96 68.94 81.642
768 1 45.96 68.94 85.353
769 1 45.96 68.94 89.064
770 1 45.96 68.94 92.775
771 1 45.96 68.94 96.486
772 1 45.96 68.94 100.197
773 1 45.96 68.94 103.908
774 1 45.96 68.94 107.619
775 1 45.96 72.77 74.22
776 1 45.96 72.77 77.931
777 1 45.96 72.77 81.642
778 1 45.96 72.77 85.353
779 1 45.96 72.77 89.064
780 1 45.96 72.77 92.775
781 1 45.96 72.77 96.486
782 1 45.96 72.77 100.197
783 1 45.96 72.77 103.908
784 1 45.96 72.77 107.619
785 1 45.96 72.77 111.33
786 1 45.96 76.6 70.509
787 1 45.96 76.6 74.22
788 1 45.96 76.6 77.931
789 1 45.96 76.6 81.642
790 1 45.96 76.6 85.353
791 1 45.96 76.6 89.064
792 1 45.96 76.6 92.775
793 1 45.96 76.6 96.486
794 1 45.96 76.6 100.197
795 1 45.96 76.6 103.908
796 1 45.96 76.6 107.619
797 1 45.96 76.6 111.33
798 1 45.96 76.6 115.041
799 1 45.96 80.43 66.798
800 1 45.96 80.43 70.509
801 1 45.96 80.43 74.22
802 1 45.96 80.43 77.931
803 1 45.96 80.43 81.642
804 1 45.96 80.43 85.353
805 1 45.96 80.43 89.064
806 1 45.96 80.43 92.775
807 1 45.96 80.43 96.486
808 1 45.96 80.43 100.197
809 1 45.96 80.43 103.908
810 1 45.96 80.43 107.619
811 1 45.96 80.43 111.33
812 1 45.96 80.43 115.041
813 1 45.96 80.43 118.752
814 1 45.96 84.26 63.087
815 1 45.96 84.26 66.798
816 1 45.96 84.26 70.509
817 1 45.96 84.26 74.22
818 1 45.96 84.26 77.931
819 1 45.96 84.26 81.642
820 1 45.96 84.26 85.353
821 1 45.96 84.26 89.064
822 1 45.96 84.26 92.775
823 1 45.96 84.26 96.486
824 1 45.96 84.26 100.197
825 1 45.96 84.26 103.908
826 1 45.96 84.26 107.619
827 1 45.96 84.26 111.33
828 1 45.96 84.26 115.041
829 1 45.96 84.26 118.752
830 1 45.96 84.26 122.463
831 1 45.96 88.09 59.376
832 1 45.96 88.09 63.087
833 1 45.96 88.09 66.798
834 1 45.96 88.09 70.509
835 1 45.96 88.09 74.22
836 1 45.96 88.09 77.931
837 1 45.96 88.09 81.642
838 1 45.96 88.09 85.353
839 1 45.96 88.09 89.064
840 1 45.96 88.09 92.775
841 1 45.96 88.09 96.486
842 1 45.96 88.09 100.197
843 1 45.96 88.09 103.908
844 1 45.96 88.09 107.619
845 1 45.96 88.09 111.33
846 1 45.96 88.09 115.041
847 1 45.96 88.09 118.752
848 1 45.96 88.09 122.463
849 1 45.96 88.09 126.174
850 1 45.96 91.92 55.665
851 1 45.96 91.92 59.376
852 1 45.96 91.92 63.087
853 1 45.96 91.92 66.798
854 1 45.96 91.92 70.509
855 1 45.96 91.92 74.22
856 1 45.96 91.92 77.931
857 1 45.96 91.92 81.642
858 1 45.96 91.92 85.353
859 1 45.96 91.92 89.064
860 1 45.96 91.92 92.775
861 1 45.96 91.92 96.486
862 1 45.96 91.92 100.197
863 1 45.96 91.92 103.908
864 1 45.96 91.92 107.619
865 1 45.96 91.92 111.33
866 1 45.96 91.92 115.041
867 1 45.96 91.92 118.752
868 1 45.96 91.92 122.463
869 1 45.96 91.92 126.174
870 1 45.96 91.92 129.885
871 1 45.96 95.75 55.665
872 1 45.96 95.75 59.376
873 1 45.96 95.75 63.087
874 1 45.96 95.75 66.798
875 1 45.96 95.75 70.509
876 1 45.96 95.75 74.22
877 1 45.96 95.75 77.931
878 1 45.96 95.75 81.642
879 1 45.96 95.75 85.353
880 1 45.96 95.75 89.064
881 1 45.96 95.75 92.775
882 1 45.96 95.75 96.486
883 1 45.96 95.75 100.197
884 1 45.96 95.75 103.908
885 1 45.96 95.75 107.619
886 1 45.96 95.75 111.33
887 1 45.96 95.75 115.041
888 1 45.96 95.75 118.752
889 1 45.96 95.75 122.463
890 1 45.96 95.75 126.174
891 1 45.96 95.75 129.885
892 1 45.96 99.58 55.665
893 1 45.96 99.58 59.376
894 1 45.96 99.58 63.087
895 1 45.96 99.58 66.798
896 1 45.96 99.58 70.509
897 1 45.96 99.58 74.22
898 1 45.96 99.58 77.931
899 1 45.96 99.58 81.642
900 1 45.96 99.58 85.353
901 1 45.96 99.58 89.064
902 1 45.96 99.58 92.775
903 1 45.96 99.58 96.486
904 1 45.96 99.58 100.197
905 1 45.96 99.58 103.908
906 1 45.96 99.58 107.619
907 1 45.96 99.58 111.33
908 1 45.96 99.58 115.041
909 1 45.96 99.58 118.752
910 1 45.96 99.58 122.463
911 1 45.96 99.58 126.174
912 1 45.96 99.58 129.885
913 1 45.96 103.41 59.376
914 1 45.96 103.41 63.087
915 1 45.96 103.41 66.798
916 1 45.96 103.41 70.509
917 1 45.96 103.41 74.22
918 1 45.96 103.41 77.931
919 1 45.96 103.41 81.642
920 1 45.96 103.41 85.353
921 1 45.96 103.41 89.064
922 1 45.96 103.41 92.775
923 1 45.96 103.41 96.486
924 1 45.96 103.41 100.197
925 1 45.96 103.41 103.908
926 1 45.96 103.41 107.619
927 1 45.96 103.41 111.33
928 1 45.96 103.41 115.041
929 1 45.96 103.41 118.752
930 1 45.96 103.41 122.463
931 1 45.96 103.41 126.174
932 1 45.96 107.24 63.087
933 1 45.96 107.24 66.798
934 1 45.96 107.24 70.509
935 1 45.96 107.24 74.22
936 1 45.96 107.24 77.931
937 1 45.96 107.24 81.642
938 1 45.96 107.24 85.353
939 1 45.96 107.24 89.064
940 1 45.96 107.24 92.775
941 1 45.96 107.24 96.486
942 1 45.96 107.24 100.197
943 1 45.96 107.24 103.908
944 1 45.96 107.24 107.619
945 1 45.96 107.24 111.33
946 1 45.96 107.24 115.041
947 1 45.96 107.24 118.752
948 1 45.96 107.24 122.463
949 1 45.96 111.07 66.798
950 1 45.96 111.07 70.509
951 1 45.96 111.07 74.22
952 1 45.96 111.07 77.931
953 1 45.96 111.07 81.642
954 1 45.96 111.07 85.353
955 1 45.96 111.07 89.064
956 1 45.96 111.07 92.775
957 1 45.96 111.07 96.486
958 1 45.96 111.07 100.197
959 1 45.96 111.07 103.908
960 1 45.96 111.07 107.619
961 1 45.96 111.07 111.33
962 1 45.96 111.07 115.041
963 1 45.96 111.07 118.752
964 1 45.96 114.9 70.509
965 1 45.96 114.9 74.22
966 1 45.96 114.9 77.931
967 1 45.96 114.9 81.642
968 1 45.96 114.9 85.353
969 1 45.96 114.9 89.064
970 1 45.96 114.9 92.775
971 1 45.96 114.9 96.486
972 1 45.96 114.9 100.197
973 1 45.96 114.9 103.908
974 1 45.96 114.9 107.619
975 1 45.96 114.9 111.33
976 1 45.96 114.9 115.041
977 1 45.96 118.73 74.22
978 1 45.96 118.73 77.931
979 1 45.96 118.73 81.642
980 1 45.96 118.73 85.353
981 1 45.96 118.73 89.064
982 1 45.96 118.73 92.775
983 1 45.96 118.73 96.486
984 1 45.96 118.73 100.197
985 1 45.96 118.73 103.908
986 1 45.96 118.73 107.619
987 1 45.96 118.73 111.33
988 1 45.96 122.56 77.931
989 1 45.96 122.56 81.642
990 1 45.96 122.56 85.353
991 1 45.96 122.56 89.064
992 1 45.96 122.56 92.775
993 1 45.96 122.56 96.486
994 1 45.96 122.56 100.197
995 1 45.96 122.56 103.908
996 1 45.96 122.56 107.619
997 1 45.96 126.39 81.642
998 1 45.96 126.39 85.353
999 1 45.96 126.39 89.064
1000 1 45.96 126.39 92.775
1001 1 45.96 126.39 96.486
1002 1 45.96 126.39 100.197
1003 1 45.96 126.39 103.908
1004 1 45.96 130.22 85.353
1005 1 45.96 130.22 89.064
1006 1 45.96 130.22 92.775
1007 1 45.96 130.22 96.486
1008 1 45.96 130.22 100.197
1009 1 45.96 134.05 89.064
1010 1 45.96 134.05 92.775
1011 1 45.96 134.05 96.486
1012 1 49.79 53.62 89.064
1013 1 49.79 53.62 92.775
1014 1 49.79 53.62 96.486
1015 1 49.79 57.45 85.353
1016 1 49.79 57.45 89.064
1017 1 49.79 57.45 92.775
1018 1 49.79 57.45 96.486
1019 1 49.79 57.45 100.197
1020 1 49.79 61.28 81.642
1021 1 49.79 61.28 85.353
1022 1 49.79 61.28 89.064
1023 1 49.79 61.28 92.775
1024 1 49.79 61.28 96.486
1025 1 49.79 61.28 100.197
1026 1 49.79 61.28 103.908
1027 1 49.79 65.11 77.931
1028 1 49.79 65.11 81.642
1029 1 49.79 65.11 85.353
1030 1 49.79 65.11 89.064
1031 1 49.79 65.11 92.775
1032 1 49.79 65.11 96.486
1033 1 49.79 65.11 100.197
1034 1 49.79 65.11 103.908
1035 1 49.79 65.11 107.619
1036 1 49.79 68.94 74.22
1037 1 49.79 68.94 77.931
1038 1 49.79 68.94 81.642
1039 1 49.79 68.94 85.353
1040 1 49.79 68.94 89.064
1041 1 49.79 68.94 92.775
1042 1 49.79 68.94 96.486
1043 1 49.79 68.94 100.197
1044 1 49.79 68.94 103.908
1045 1 49.79 68.94 107.619
1046 1 49.79 68.94 111.33
1047 1 49.79 72.77 70.509
1048 1 49.79 72.77 74.22
1049 1 49.79 72.77 77.931
1050 1 49.79 72.77 81.642
1051 1 49.79 72.77 85.353
1052 1 49.79 72.77 89.064
1053 1 49.79 72.77 92.775
1054 1 49.79 72.77 96.486
1055 1 49.79 72.77 100.197
1056 1 49.79 72.77 103.908
1057 1 49.79 72.77 107.619
1058 1 49.79 72.77 111.33
1059 1 49.79 72.77 115.041
1060 1 49.79 76.6 66.798
1061 1 49.79 76.6 70.509
1062 1 49.79 76.6 74.22
1063 1 49.79 76.6 77.931
1064 1 49.79 76.6 81.642
1065 1 49.79 76.6 85.353
1066 1 49.79 76.6 89.064
1067 1 49.79 76.6 92.775
1068 1 49.79 76.6 96.486
1069 1 49.79 76.6 100.197
1070 1 49.79 76.6 103.908
1071 1 49.79 76.6 107.619
1072 1 49.79 76.6 111.33
1073 1 49.79 76.6 115.041
1074 1 49.79 76.6 118.752
1075 1 49.79 80.43 63.087
1076 1 49.79 80.43 66.798
1077 1 49.79 80.43 70.509
1078 1 49.79 80.43 74.22
1079 1 49.79 80.43 77.931
1080 1 49.79 80.43 81.642
1081 1 49.79 80.43 85.353
1082 1 49.79 80.43 89.064
1083 1 49.79 80.43 92.775
1084 1 49.79 80.43 96.486
1085 1 49.79 80.43 100.197
1086 1 49.79 80.43 103.908
1087 1 49.79 80.43 107.619
1088 1 49.79 80.43 111.33
1089 1 49.79 80.43 115.041
1090 1 49.79 80.43 118.752
1091 1 49.79 80.43 122.463
1092 1 49.79 84.26 59.376
1093 1 49.79 84.26 63.087
1094 1 49.79 84.26 66.798
1095 1 49.79 84.26 70.509
1096 1 49.79 84.26 74.22
1097 1 49.79 84.26 77.931
1098 1 49.79 84.26 81.642
1099 1 49.79 84.26 85.353
1100 1 49.79 84.26 89.064
1101 1 49.79 84.26 92.775
1102 1 49.79 84.26 96.486
1103 1 49.79 84.26 100.197
1104 1 49.79 84.26 103.908
1105 1 49.79 84.26 107.619
1106 1 49.79 84.26 111.33
1107 1 49.79 84.26 115.041
1108 1 49.79 84.26 118.752
1109 1 49.79 84.26 122.463
1110 1 49.79 84.26 126.174
1111 1 49.79 88.09 55.665
1112 1 49.79 88.09 59.376
1113 1 49.79 88.09 63.087
1114 1 49.79 88.09 66.798
1115 1 49.79 88.09 70.509
1116 1 49.79 88.09 74.22
1117 1 49.79 88.09 77.931
1118 1 49.79 88.09 81.642
1119 1 49.79 88.09 85.353
1120 1 49.79 88.09 89.064
1121 1 49.79 88.09 92.775
1122 1 49.79 88.09 96.486
1123 1 49.79 88.09 100.197
1124 1 49.79 88.09 103.908
1125 1 49.79 88.09 107.619
1126 1 49.79 88.09 111.33
1127 1 49.79 88.09 115.041
1128 1 49.79 88.09 118.752
1129 1 49.79 88.09 122.463
1130 1 49.79 88.09 126.174
1131 1 49.79 88.09 129.885
1132 1 49.79 91.92 51.954
1133 1 49.79 91.92 55.665
1134 1 49.79 91.92 59.376
1135 1 49.79 91.92 63.087
1136 1 49.79 91.92 66.798
1137 1 49.79 91.92 70.509
1138 1 49.79 91.92 74.22
1139 1 49.79 91.92 77.931
1140 1 49.79 91.92 81.642
1141 1 49.79 91.92 85.353
1142 1 49.79 91.92 89.064
1143 1 49.79 91.92 92.775
1144 1 49.79 91.92 96.486
1145 1 49.79 91.92 100.197
1146 1 49.79 91.92 103.908
1147 1 49.79 91.92 107.619
1148 1 49.79 91.92 111.33
1149 1 49.79 91.92 115.041
1150 1 49.79 91.92 118.752
1151 1 49.79 91.92 122.463
1152 1 49.79 91.92 126.174
1153 1 49.79 91.92 129.885
1154 1 49.79 91.92 133.596
1155 1 49.79 95.75 51.954
1156 1 49.79 95.75 55.665
1157 1 49.79 95.75 59.376
1158 1 49.79 95.75 63.087
1159 1 49.79 95.75 66.798
1160 1 49.79 95.75 70.509
1161 1 49.79 95.75 74.22
1162 1 49.79 95.75 77.931
1163 1 49.79 95.75 81.642
1164 1 49.79 95.75 85.353
1165 1 49.79 95.75 89.064
1166 1 49.79 95.75 92.775
1167 1 49.79 95.75 96.486
1168 1 49.79 95.75 100.197
1169 1 49.79 95.75 103.908
1170 1 49.79 95.75 107.619
1171 1 49.79 95.75 111.33
1172 1 49.79 95.75 115.041
1173 1 49.79 95.75 118.752
1174 1 49.79 95.75 122.463
1175 1 49.79 95.75 126.174