LAMMPS_Input_Grains/50000_Atom_Target_Ratio_1.4_unperfect_grain

49406 atoms
2 atom types
0 118.73 xlo xhi
0 118.73 ylo yhi
0 115.041 zlo zhi
0.0 0.0 0.0 xy xz yz

Atoms

1 1 0.0 57.45 55.665
2 1 0.0 57.45 59.376
3 1 0.0 61.28 55.665
4 1 0.0 61.28 59.376
5 1 3.83 38.3 55.665
6 1 3.83 38.3 59.376
7 1 3.83 42.13 51.954
8 1 3.83 42.13 55.665
9 1 3.83 42.13 59.376
10 1 3.83 42.13 63.087
11 1 3.83 45.96 48.243
12 1 3.83 45.96 51.954
13 1 3.83 45.96 55.665
14 1 3.83 45.96 59.376
15 1 3.83 45.96 63.087
16 1 3.83 45.96 66.798
17 1 3.83 49.79 44.532
18 1 3.83 49.79 48.243
19 1 3.83 49.79 51.954
20 1 3.83 49.79 55.665
21 1 3.83 49.79 59.376
22 1 3.83 49.79 63.087
23 1 3.83 49.79 66.798
24 1 3.83 49.79 70.509
25 1 3.83 53.62 40.821
26 1 3.83 53.62 44.532
27 1 3.83 53.62 48.243
28 1 3.83 53.62 51.954
29 1 3.83 53.62 55.665
30 1 3.83 53.62 59.376
31 1 3.83 53.62 63.087
32 1 3.83 53.62 66.798
33 1 3.83 53.62 70.509
34 1 3.83 53.62 74.22
35 1 3.83 57.45 37.11
36 1 3.83 57.45 40.821
37 1 3.83 57.45 44.532
38 1 3.83 57.45 48.243
39 1 3.83 57.45 51.954
40 1 3.83 57.45 55.665
41 1 3.83 57.45 59.376
42 1 3.83 57.45 63.087
43 1 3.83 57.45 66.798
44 1 3.83 57.45 70.509
45 1 3.83 57.45 74.22
46 1 3.83 57.45 77.931
47 1 3.83 61.28 37.11
48 1 3.83 61.28 40.821
49 1 3.83 61.28 44.532
50 1 3.83 61.28 48.243
51 1 3.83 61.28 51.954
52 1 3.83 61.28 55.665
53 1 3.83 61.28 59.376
54 1 3.83 61.28 63.087
55 1 3.83 61.28 66.798
56 1 3.83 61.28 70.509
57 1 3.83 61.28 74.22
58 1 3.83 61.28 77.931
59 1 3.83 65.11 40.821
60 1 3.83 65.11 44.532
61 1 3.83 65.11 48.243
62 1 3.83 65.11 51.954
63 1 3.83 65.11 55.665
64 1 3.83 65.11 59.376
65 1 3.83 65.11 63.087
66 1 3.83 65.11 66.798
67 1 3.83 65.11 70.509
68 1 3.83 65.11 74.22
69 1 3.83 68.94 44.532
70 1 3.83 68.94 48.243
71 1 3.83 68.94 51.954
72 1 3.83 68.94 55.665
73 1 3.83 68.94 59.376
74 1 3.83 68.94 63.087
75 1 3.83 68.94 66.798
76 1 3.83 68.94 70.509
77 1 3.83 72.77 48.243
78 1 3.83 72.77 51.954
79 1 3.83 72.77 55.665
80 1 3.83 72.77 59.376
81 1 3.83 72.77 63.087
82 1 3.83 72.77 66.798
83 1 3.83 76.6 51.954
84 1 3.83 76.6 55.665
85 1 3.83 76.6 59.376
86 1 3.83 76.6 63.087
87 1 3.83 80.43 55.665
88 1 3.83 80.43 59.376
89 1 7.66 34.47 55.665
90 1 7.66 34.47 59.376
91 1 7.66 38.3 51.954
92 1 7.66 38.3 55.665
93 1 7.66 38.3 59.376
94 1 7.66 38.3 63.087
95 1 7.66 42.13 44.532
96 1 7.66 42.13 48.243
97 1 7.66 42.13 51.954
98 1 7.66 42.13 55.665
99 1 7.66 42.13 59.376
100 1 7.66 42.13 63.087
101 1 7.66 42.13 66.798
102 1 7.66 42.13 70.509
103 1 7.66 45.96 40.821
104 1 7.66 45.96 44.532
105 1 7.66 45.96 48.243
106 1 7.66 45.96 51.954
107 1 7.66 45.96 55.665
108 1 7.66 45.96 59.376
109 1 7.66 45.96 63.087
110 1 7.66 45.96 66.798
111 1 7.66 45.96 70.509
112 1 7.66 45.96 74.22
113 1 7.66 49.79 40.821
114 1 7.66 49.79 44.532
115 1 7.66 49.79 48.243
116 1 7.66 49.79 51.954
117 1 7.66 49.79 55.665
118 1 7.66 49.79 59.376
119 1 7.66 49.79 63.087
120 1 7.66 49.79 66.798
121 1 7.66 49.79 70.509
122 1 7.66 49.79 74.22
123 1 7.66 53.62 37.11
124 1 7.66 53.62 40.821
125 1 7.66 53.62 44.532
126 1 7.66 53.62 48.243
127 1 7.66 53.62 51.954
128 1 7.66 53.62 55.665
129 1 7.66 53.62 59.376
130 1 7.66 53.62 63.087
131 1 7.66 53.62 66.798
132 1 7.66 53.62 70.509
133 1 7.66 53.62 74.22
134 1 7.66 53.62 77.931
135 1 7.66 57.45 33.399
136 1 7.66 57.45 37.11
137 1 7.66 57.45 40.821
138 1 7.66 57.45 44.532
139 1 7.66 57.45 48.243
140 1 7.66 57.45 51.954
141 1 7.66 57.45 55.665
142 1 7.66 57.45 59.376
143 1 7.66 57.45 63.087
144 1 7.66 57.45 66.798
145 1 7.66 57.45 70.509
146 1 7.66 57.45 74.22
147 1 7.66 57.45 77.931
148 1 7.66 57.45 81.642
149 1 7.66 61.28 33.399
150 1 7.66 61.28 37.11
151 1 7.66 61.28 40.821
152 1 7.66 61.28 44.532
153 1 7.66 61.28 48.243
154 1 7.66 61.28 51.954
155 1 7.66 61.28 55.665
156 1 7.66 61.28 59.376
157 1 7.66 61.28 63.087
158 1 7.66 61.28 66.798
159 1 7.66 61.28 70.509
160 1 7.66 61.28 74.22
161 1 7.66 61.28 77.931
162 1 7.66 61.28 81.642
163 1 7.66 65.11 37.11
164 1 7.66 65.11 40.821
165 1 7.66 65.11 44.532
166 1 7.66 65.11 48.243
167 1 7.66 65.11 51.954
168 1 7.66 65.11 55.665
169 1 7.66 65.11 59.376
170 1 7.66 65.11 63.087
171 1 7.66 65.11 66.798
172 1 7.66 65.11 70.509
173 1 7.66 65.11 74.22
174 1 7.66 65.11 77.931
175 1 7.66 68.94 40.821
176 1 7.66 68.94 44.532
177 1 7.66 68.94 48.243
178 1 7.66 68.94 51.954
179 1 7.66 68.94 55.665
180 1 7.66 68.94 59.376
181 1 7.66 68.94 63.087
182 1 7.66 68.94 66.798
183 1 7.66 68.94 70.509
184 1 7.66 68.94 74.22
185 1 7.66 72.77 40.821
186 1 7.66 72.77 44.532
187 1 7.66 72.77 48.243
188 1 7.66 72.77 51.954
189 1 7.66 72.77 55.665
190 1 7.66 72.77 59.376
191 1 7.66 72.77 63.087
192 1 7.66 72.77 66.798
193 1 7.66 72.77 70.509
194 1 7.66 72.77 74.22
195 1 7.66 76.6 44.532
196 1 7.66 76.6 48.243
197 1 7.66 76.6 51.954
198 1 7.66 76.6 55.665
199 1 7.66 76.6 59.376
200 1 7.66 76.6 63.087
201 1 7.66 76.6 66.798
202 1 7.66 76.6 70.509
203 1 7.66 80.43 51.954
204 1 7.66 80.43 55.665
205 1 7.66 80.43 59.376
206 1 7.66 80.43 63.087
207 1 7.66 84.26 55.665
208 1 7.66 84.26 59.376
209 1 11.49 30.64 55.665
210 1 11.49 30.64 59.376
211 1 11.49 34.47 48.243
212 1 11.49 34.47 51.954
213 1 11.49 34.47 55.665
214 1 11.49 34.47 59.376
215 1 11.49 34.47 63.087
216 1 11.49 34.47 66.798
217 1 11.49 38.3 44.532
218 1 11.49 38.3 48.243
219 1 11.49 38.3 51.954
220 1 11.49 38.3 55.665
221 1 11.49 38.3 59.376
222 1 11.49 38.3 63.087
223 1 11.49 38.3 66.798
224 1 11.49 38.3 70.509
225 1 11.49 42.13 40.821
226 1 11.49 42.13 44.532
227 1 11.49 42.13 48.243
228 1 11.49 42.13 51.954
229 1 11.49 42.13 55.665
230 1 11.49 42.13 59.376
231 1 11.49 42.13 63.087
232 1 11.49 42.13 66.798
233 1 11.49 42.13 70.509
234 1 11.49 42.13 74.22
235 1 11.49 45.96 37.11
236 1 11.49 45.96 40.821
237 1 11.49 45.96 44.532
238 1 11.49 45.96 48.243
239 1 11.49 45.96 51.954
240 1 11.49 45.96 55.665
241 1 11.49 45.96 59.376
242 1 11.49 45.96 63.087
243 1 11.49 45.96 66.798
244 1 11.49 45.96 70.509
245 1 11.49 45.96 74.22
246 1 11.49 45.96 77.931
247 1 11.49 49.79 33.399
248 1 11.49 49.79 37.11
249 1 11.49 49.79 40.821
250 1 11.49 49.79 44.532
251 1 11.49 49.79 48.243
252 1 11.49 49.79 51.954
253 1 11.49 49.79 55.665
254 1 11.49 49.79 59.376
255 1 11.49 49.79 63.087
256 1 11.49 49.79 66.798
257 1 11.49 49.79 70.509
258 1 11.49 49.79 74.22
259 1 11.49 49.79 77.931
260 1 11.49 49.79 81.642
261 1 11.49 53.62 33.399
262 1 11.49 53.62 37.11
263 1 11.49 53.62 40.821
264 1 11.49 53.62 44.532
265 1 11.49 53.62 48.243
266 1 11.49 53.62 51.954
267 1 11.49 53.62 55.665
268 1 11.49 53.62 59.376
269 1 11.49 53.62 63.087
270 1 11.49 53.62 66.798
271 1 11.49 53.62 70.509
272 1 11.49 53.62 74.22
273 1 11.49 53.62 77.931
274 1 11.49 53.62 81.642
275 1 11.49 57.45 29.688
276 1 11.49 57.45 33.399
277 1 11.49 57.45 37.11
278 1 11.49 57.45 40.821
279 1 11.49 57.45 44.532
280 1 11.49 57.45 48.243
281 1 11.49 57.45 51.954
282 1 11.49 57.45 55.665
283 1 11.49 57.45 59.376
284 1 11.49 57.45 63.087
285 1 11.49 57.45 66.798
286 1 11.49 57.45 70.509
287 1 11.49 57.45 74.22
288 1 11.49 57.45 77.931
289 1 11.49 57.45 81.642
290 1 11.49 57.45 85.353
291 1 11.49 61.28 29.688
292 1 11.49 61.28 33.399
293 1 11.49 61.28 37.11
294 1 11.49 61.28 40.821
295 1 11.49 61.28 44.532
296 1 11.49 61.28 48.243
297 1 11.49 61.28 51.954
298 1 11.49 61.28 55.665
299 1 11.49 61.28 59.376
300 1 11.49 61.28 63.087
301 1 11.49 61.28 66.798
302 1 11.49 61.28 70.509
303 1 11.49 61.28 74.22
304 1 11.49 61.28 77.931
305 1 11.49 61.28 81.642
306 1 11.49 61.28 85.353
307 1 11.49 65.11 33.399
308 1 11.49 65.11 37.11
309 1 11.49 65.11 40.821
310 1 11.49 65.11 44.532
311 1 11.49 65.11 48.243
312 1 11.49 65.11 51.954
313 1 11.49 65.11 55.665
314 1 11.49 65.11 59.376
315 1 11.49 65.11 63.087
316 1 11.49 65.11 66.798
317 1 11.49 65.11 70.509
318 1 11.49 65.11 74.22
319 1 11.49 65.11 77.931
320 1 11.49 65.11 81.642
321 1 11.49 68.94 33.399
322 1 11.49 68.94 37.11
323 1 11.49 68.94 40.821
324 1 11.49 68.94 44.532
325 1 11.49 68.94 48.243
326 1 11.49 68.94 51.954
327 1 11.49 68.94 55.665
328 1 11.49 68.94 59.376
329 1 11.49 68.94 63.087
330 1 11.49 68.94 66.798
331 1 11.49 68.94 70.509
332 1 11.49 68.94 74.22
333 1 11.49 68.94 77.931
334 1 11.49 68.94 81.642
335 1 11.49 72.77 37.11
336 1 11.49 72.77 40.821
337 1 11.49 72.77 44.532
338 1 11.49 72.77 48.243
339 1 11.49 72.77 51.954
340 1 11.49 72.77 55.665
341 1 11.49 72.77 59.376
342 1 11.49 72.77 63.087
343 1 11.49 72.77 66.798
344 1 11.49 72.77 70.509
345 1 11.49 72.77 74.22
346 1 11.49 72.77 77.931
347 1 11.49 76.6 40.821
348 1 11.49 76.6 44.532
349 1 11.49 76.6 48.243
350 1 11.49 76.6 51.954
351 1 11.49 76.6 55.665
352 1 11.49 76.6 59.376
353 1 11.49 76.6 63.087
354 1 11.49 76.6 66.798
355 1 11.49 76.6 70.509
356 1 11.49 76.6 74.22
357 1 11.49 80.43 44.532
358 1 11.49 80.43 48.243
359 1 11.49 80.43 51.954
360 1 11.49 80.43 55.665
361 1 11.49 80.43 59.376
362 1 11.49 80.43 63.087
363 1 11.49 80.43 66.798
364 1 11.49 80.43 70.509
365 1 11.49 84.26 48.243
366 1 11.49 84.26 51.954
367 1 11.49 84.26 55.665
368 1 11.49 84.26 59.376
369 1 11.49 84.26 63.087
370 1 11.49 84.26 66.798
371 1 11.49 88.09 55.665
372 1 11.49 88.09 59.376
373 1 15.32 26.81 51.954
374 1 15.32 26.81 55.665
375 1 15.32 26.81 59.376
376 1 15.32 26.81 63.087
377 1 15.32 30.64 48.243
378 1 15.32 30.64 51.954
379 1 15.32 30.64 55.665
380 1 15.32 30.64 59.376
381 1 15.32 30.64 63.087
382 1 15.32 30.64 66.798
383 1 15.32 34.47 44.532
384 1 15.32 34.47 48.243
385 1 15.32 34.47 51.954
386 1 15.32 34.47 55.665
387 1 15.32 34.47 59.376
388 1 15.32 34.47 63.087
389 1 15.32 34.47 66.798
390 1 15.32 34.47 70.509
391 1 15.32 38.3 40.821
392 1 15.32 38.3 44.532
393 1 15.32 38.3 48.243
394 1 15.32 38.3 51.954
395 1 15.32 38.3 55.665
396 1 15.32 38.3 59.376
397 1 15.32 38.3 63.087
398 1 15.32 38.3 66.798
399 1 15.32 38.3 70.509
400 1 15.32 38.3 74.22
401 1 15.32 42.13 37.11
402 1 15.32 42.13 40.821
403 1 15.32 42.13 44.532
404 1 15.32 42.13 48.243
405 1 15.32 42.13 51.954
406 1 15.32 42.13 55.665
407 1 15.32 42.13 59.376
408 1 15.32 42.13 63.087
409 1 15.32 42.13 66.798
410 1 15.32 42.13 70.509
411 1 15.32 42.13 74.22
412 1 15.32 42.13 77.931
413 1 15.32 45.96 33.399
414 1 15.32 45.96 37.11
415 1 15.32 45.96 40.821
416 1 15.32 45.96 44.532
417 1 15.32 45.96 48.243
418 1 15.32 45.96 51.954
419 1 15.32 45.96 55.665
420 1 15.32 45.96 59.376
421 1 15.32 45.96 63.087
422 1 15.32 45.96 66.798
423 1 15.32 45.96 70.509
424 1 15.32 45.96 74.22
425 1 15.32 45.96 77.931
426 1 15.32 45.96 81.642
427 1 15.32 49.79 29.688
428 1 15.32 49.79 33.399
429 1 15.32 49.79 37.11
430 1 15.32 49.79 40.821
431 1 15.32 49.79 44.532
432 1 15.32 49.79 48.243
433 1 15.32 49.79 51.954
434 1 15.32 49.79 55.665
435 1 15.32 49.79 59.376
436 1 15.32 49.79 63.087
437 1 15.32 49.79 66.798
438 1 15.32 49.79 70.509
439 1 15.32 49.79 74.22
440 1 15.32 49.79 77.931
441 1 15.32 49.79 81.642
442 1 15.32 49.79 85.353
443 1 15.32 53.62 25.977
444 1 15.32 53.62 29.688
445 1 15.32 53.62 33.399
446 1 15.32 53.62 37.11
447 1 15.32 53.62 40.821
448 1 15.32 53.62 44.532
449 1 15.32 53.62 48.243
450 1 15.32 53.62 51.954
451 1 15.32 53.62 55.665
452 1 15.32 53.62 59.376
453 1 15.32 53.62 63.087
454 1 15.32 53.62 66.798
455 1 15.32 53.62 70.509
456 1 15.32 53.62 74.22
457 1 15.32 53.62 77.931
458 1 15.32 53.62 81.642
459 1 15.32 53.62 85.353
460 1 15.32 53.62 89.064
461 1 15.32 57.45 25.977
462 1 15.32 57.45 29.688
463 1 15.32 57.45 33.399
464 1 15.32 57.45 37.11
465 1 15.32 57.45 40.821
466 1 15.32 57.45 44.532
467 1 15.32 57.45 48.243
468 1 15.32 57.45 51.954
469 1 15.32 57.45 55.665
470 1 15.32 57.45 59.376
471 1 15.32 57.45 63.087
472 1 15.32 57.45 66.798
473 1 15.32 57.45 70.509
474 1 15.32 57.45 74.22
475 1 15.32 57.45 77.931
476 1 15.32 57.45 81.642
477 1 15.32 57.45 85.353
478 1 15.32 57.45 89.064
479 1 15.32 61.28 25.977
480 1 15.32 61.28 29.688
481 1 15.32 61.28 33.399
482 1 15.32 61.28 37.11
483 1 15.32 61.28 40.821
484 1 15.32 61.28 44.532
485 1 15.32 61.28 48.243
486 1 15.32 61.28 51.954
487 1 15.32 61.28 55.665
488 1 15.32 61.28 59.376
489 1 15.32 61.28 63.087
490 1 15.32 61.28 66.798
491 1 15.32 61.28 70.509
492 1 15.32 61.28 74.22
493 1 15.32 61.28 77.931
494 1 15.32 61.28 81.642
495 1 15.32 61.28 85.353
496 1 15.32 61.28 89.064
497 1 15.32 65.11 25.977
498 1 15.32 65.11 29.688
499 1 15.32 65.11 33.399
500 1 15.32 65.11 37.11
501 1 15.32 65.11 40.821
502 1 15.32 65.11 44.532
503 1 15.32 65.11 48.243
504 1 15.32 65.11 51.954
505 1 15.32 65.11 55.665
506 1 15.32 65.11 59.376
507 1 15.32 65.11 63.087
508 1 15.32 65.11 66.798
509 1 15.32 65.11 70.509
510 1 15.32 65.11 74.22
511 1 15.32 65.11 77.931
512 1 15.32 65.11 81.642
513 1 15.32 65.11 85.353
514 1 15.32 65.11 89.064
515 1 15.32 68.94 29.688
516 1 15.32 68.94 33.399
517 1 15.32 68.94 37.11
518 1 15.32 68.94 40.821
519 1 15.32 68.94 44.532
520 1 15.32 68.94 48.243
521 1 15.32 68.94 51.954
522 1 15.32 68.94 55.665
523 1 15.32 68.94 59.376
524 1 15.32 68.94 63.087
525 1 15.32 68.94 66.798
526 1 15.32 68.94 70.509
527 1 15.32 68.94 74.22
528 1 15.32 68.94 77.931
529 1 15.32 68.94 81.642
530 1 15.32 68.94 85.353
531 1 15.32 72.77 33.399
532 1 15.32 72.77 37.11
533 1 15.32 72.77 40.821
534 1 15.32 72.77 44.532
535 1 15.32 72.77 48.243
536 1 15.32 72.77 51.954
537 1 15.32 72.77 55.665
538 1 15.32 72.77 59.376
539 1 15.32 72.77 63.087
540 1 15.32 72.77 66.798
541 1 15.32 72.77 70.509
542 1 15.32 72.77 74.22
543 1 15.32 72.77 77.931
544 1 15.32 72.77 81.642
545 1 15.32 76.6 37.11
546 1 15.32 76.6 40.821
547 1 15.32 76.6 44.532
548 1 15.32 76.6 48.243
549 1 15.32 76.6 51.954
550 1 15.32 76.6 55.665
551 1 15.32 76.6 59.376
552 1 15.32 76.6 63.087
553 1 15.32 76.6 66.798
554 1 15.32 76.6 70.509
555 1 15.32 76.6 74.22
556 1 15.32 76.6 77.931
557 1 15.32 80.43 40.821
558 1 15.32 80.43 44.532
559 1 15.32 80.43 48.243
560 1 15.32 80.43 51.954
561 1 15.32 80.43 55.665
562 1 15.32 80.43 59.376
563 1 15.32 80.43 63.087
564 1 15.32 80.43 66.798
565 1 15.32 80.43 70.509
566 1 15.32 80.43 74.22
567 1 15.32 84.26 44.532
568 1 15.32 84.26 48.243
569 1 15.32 84.26 51.954
570 1 15.32 84.26 55.665
571 1 15.32 84.26 59.376
572 1 15.32 84.26 63.087
573 1 15.32 84.26 66.798
574 1 15.32 84.26 70.509
575 1 15.32 88.09 48.243
576 1 15.32 88.09 51.954
577 1 15.32 88.09 55.665
578 1 15.32 88.09 59.376
579 1 15.32 88.09 63.087
580 1 15.32 88.09 66.798
581 1 15.32 91.92 51.954
582 1 15.32 91.92 55.665
583 1 15.32 91.92 59.376
584 1 15.32 91.92 63.087
585 1 19.15 22.98 51.954
586 1 19.15 22.98 55.665
587 1 19.15 22.98 59.376
588 1 19.15 22.98 63.087
589 1 19.15 26.81 48.243
590 1 19.15 26.81 51.954
591 1 19.15 26.81 55.665
592 1 19.15 26.81 59.376
593 1 19.15 26.81 63.087
594 1 19.15 26.81 66.798
595 1 19.15 30.64 44.532
596 1 19.15 30.64 48.243
597 1 19.15 30.64 51.954
598 1 19.15 30.64 55.665
599 1 19.15 30.64 59.376
600 1 19.15 30.64 63.087
601 1 19.15 30.64 66.798
602 1 19.15 30.64 70.509
603 1 19.15 34.47 40.821
604 1 19.15 34.47 44.532
605 1 19.15 34.47 48.243
606 1 19.15 34.47 51.954
607 1 19.15 34.47 55.665
608 1 19.15 34.47 59.376
609 1 19.15 34.47 63.087
610 1 19.15 34.47 66.798
611 1 19.15 34.47 70.509
612 1 19.15 34.47 74.22
613 1 19.15 38.3 37.11
614 1 19.15 38.3 40.821
615 1 19.15 38.3 44.532
616 1 19.15 38.3 48.243
617 1 19.15 38.3 51.954
618 1 19.15 38.3 55.665
619 1 19.15 38.3 59.376
620 1 19.15 38.3 63.087
621 1 19.15 38.3 66.798
622 1 19.15 38.3 70.509
623 1 19.15 38.3 74.22
624 1 19.15 38.3 77.931
625 1 19.15 42.13 33.399
626 1 19.15 42.13 37.11
627 1 19.15 42.13 40.821
628 1 19.15 42.13 44.532
629 1 19.15 42.13 48.243
630 1 19.15 42.13 51.954
631 1 19.15 42.13 55.665
632 1 19.15 42.13 59.376
633 1 19.15 42.13 63.087
634 1 19.15 42.13 66.798
635 1 19.15 42.13 70.509
636 1 19.15 42.13 74.22
637 1 19.15 42.13 77.931
638 1 19.15 42.13 81.642
639 1 19.15 45.96 29.688
640 1 19.15 45.96 33.399
641 1 19.15 45.96 37.11
642 1 19.15 45.96 40.821
643 1 19.15 45.96 44.532
644 1 19.15 45.96 48.243
645 1 19.15 45.96 51.954
646 1 19.15 45.96 55.665
647 1 19.15 45.96 59.376
648 1 19.15 45.96 63.087
649 1 19.15 45.96 66.798
650 1 19.15 45.96 70.509
651 1 19.15 45.96 74.22
652 1 19.15 45.96 77.931
653 1 19.15 45.96 81.642
654 1 19.15 45.96 85.353
655 1 19.15 49.79 25.977
656 1 19.15 49.79 29.688
657 1 19.15 49.79 33.399
658 1 19.15 49.79 37.11
659 1 19.15 49.79 40.821
660 1 19.15 49.79 44.532
661 1 19.15 49.79 48.243
662 1 19.15 49.79 51.954
663 1 19.15 49.79 55.665
664 1 19.15 49.79 59.376
665 1 19.15 49.79 63.087
666 1 19.15 49.79 66.798
667 1 19.15 49.79 70.509
668 1 19.15 49.79 74.22
669 1 19.15 49.79 77.931
670 1 19.15 49.79 81.642
671 1 19.15 49.79 85.353
672 1 19.15 49.79 89.064
673 1 19.15 53.62 22.266
674 1 19.15 53.62 25.977
675 1 19.15 53.62 29.688
676 1 19.15 53.62 33.399
677 1 19.15 53.62 37.11
678 1 19.15 53.62 40.821
679 1 19.15 53.62 44.532
680 1 19.15 53.62 48.243
681 1 19.15 53.62 51.954
682 1 19.15 53.62 55.665
683 1 19.15 53.62 59.376
684 1 19.15 53.62 63.087
685 1 19.15 53.62 66.798
686 1 19.15 53.62 70.509
687 1 19.15 53.62 74.22
688 1 19.15 53.62 77.931
689 1 19.15 53.62 81.642
690 1 19.15 53.62 85.353
691 1 19.15 53.62 89.064
692 1 19.15 53.62 92.775
693 1 19.15 57.45 22.266
694 1 19.15 57.45 25.977
695 1 19.15 57.45 29.688
696 1 19.15 57.45 33.399
697 1 19.15 57.45 37.11
698 1 19.15 57.45 40.821
699 1 19.15 57.45 44.532
700 1 19.15 57.45 48.243
701 1 19.15 57.45 51.954
702 1 19.15 57.45 55.665
703 1 19.15 57.45 59.376
704 1 19.15 57.45 63.087
705 1 19.15 57.45 66.798
706 1 19.15 57.45 70.509
707 1 19.15 57.45 74.22
708 1 19.15 57.45 77.931
709 1 19.15 57.45 81.642
710 1 19.15 57.45 85.353
711 1 19.15 57.45 89.064
712 1 19.15 57.45 92.775
713 1 19.15 61.28 22.266
714 1 19.15 61.28 25.977
715 1 19.15 61.28 29.688
716 1 19.15 61.28 33.399
717 1 19.15 61.28 37.11
718 1 19.15 61.28 40.821
719 1 19.15 61.28 44.532
720 1 19.15 61.28 48.243
721 1 19.15 61.28 51.954
722 1 19.15 61.28 55.665
723 1 19.15 61.28 59.376
724 1 19.15 61.28 63.087
725 1 19.15 61.28 66.798
726 1 19.15 61.28 70.509
727 1 19.15 61.28 74.22
728 1 19.15 61.28 77.931
729 1 19.15 61.28 81.642
730 1 19.15 61.28 85.353
731 1 19.15 61.28 89.064
732 1 19.15 61.28 92.775
733 1 19.15 65.11 22.266
734 1 19.15 65.11 25.977
735 1 19.15 65.11 29.688
736 1 19.15 65.11 33.399
737 1 19.15 65.11 37.11
738 1 19.15 65.11 40.821
739 1 19.15 65.11 44.532
740 1 19.15 65.11 48.243
741 1 19.15 65.11 51.954
742 1 19.15 65.11 55.665
743 1 19.15 65.11 59.376
744 1 19.15 65.11 63.087
745 1 19.15 65.11 66.798
746 1 19.15 65.11 70.509
747 1 19.15 65.11 74.22
748 1 19.15 65.11 77.931
749 1 19.15 65.11 81.642
750 1 19.15 65.11 85.353
751 1 19.15 65.11 89.064
752 1 19.15 65.11 92.775
753 1 19.15 68.94 25.977
754 1 19.15 68.94 29.688
755 1 19.15 68.94 33.399
756 1 19.15 68.94 37.11
757 1 19.15 68.94 40.821
758 1 19.15 68.94 44.532
759 1 19.15 68.94 48.243
760 1 19.15 68.94 51.954
761 1 19.15 68.94 55.665
762 1 19.15 68.94 59.376
763 1 19.15 68.94 63.087
764 1 19.15 68.94 66.798
765 1 19.15 68.94 70.509
766 1 19.15 68.94 74.22
767 1 19.15 68.94 77.931
768 1 19.15 68.94 81.642
769 1 19.15 68.94 85.353
770 1 19.15 68.94 89.064
771 1 19.15 72.77 29.688
772 1 19.15 72.77 33.399
773 1 19.15 72.77 37.11
774 1 19.15 72.77 40.821
775 1 19.15 72.77 44.532
776 1 19.15 72.77 48.243
777 1 19.15 72.77 51.954
778 1 19.15 72.77 55.665
779 1 19.15 72.77 59.376
780 1 19.15 72.77 63.087
781 1 19.15 72.77 66.798
782 1 19.15 72.77 70.509
783 1 19.15 72.77 74.22
784 1 19.15 72.77 77.931
785 1 19.15 72.77 81.642
786 1 19.15 72.77 85.353
787 1 19.15 76.6 33.399
788 1 19.15 76.6 37.11
789 1 19.15 76.6 40.821
790 1 19.15 76.6 44.532
791 1 19.15 76.6 48.243
792 1 19.15 76.6 51.954
793 1 19.15 76.6 55.665
794 1 19.15 76.6 59.376
795 1 19.15 76.6 63.087
796 1 19.15 76.6 66.798
797 1 19.15 76.6 70.509
798 1 19.15 76.6 74.22
799 1 19.15 76.6 77.931
800 1 19.15 76.6 81.642
801 1 19.15 80.43 37.11
802 1 19.15 80.43 40.821
803 1 19.15 80.43 44.532
804 1 19.15 80.43 48.243
805 1 19.15 80.43 51.954
806 1 19.15 80.43 55.665
807 1 19.15 80.43 59.376
808 1 19.15 80.43 63.087
809 1 19.15 80.43 66.798
810 1 19.15 80.43 70.509
811 1 19.15 80.43 74.22
812 1 19.15 80.43 77.931
813 1 19.15 84.26 40.821
814 1 19.15 84.26 44.532
815 1 19.15 84.26 48.243
816 1 19.15 84.26 51.954
817 1 19.15 84.26 55.665
818 1 19.15 84.26 59.376
819 1 19.15 84.26 63.087
820 1 19.15 84.26 66.798
821 1 19.15 84.26 70.509
822 1 19.15 84.26 74.22
823 1 19.15 88.09 44.532
824 1 19.15 88.09 48.243
825 1 19.15 88.09 51.954
826 1 19.15 88.09 55.665
827 1 19.15 88.09 59.376
828 1 19.15 88.09 63.087
829 1 19.15 88.09 66.798
830 1 19.15 88.09 70.509
831 1 19.15 91.92 48.243
832 1 19.15 91.92 51.954
833 1 19.15 91.92 55.665
834 1 19.15 91.92 59.376
835 1 19.15 91.92 63.087
836 1 19.15 91.92 66.798
837 1 19.15 95.75 51.954
838 1 19.15 95.75 55.665
839 1 19.15 95.75 59.376
840 1 19.15 95.75 63.087
841 1 22.98 19.15 51.954
842 1 22.98 19.15 55.665
843 1 22.98 19.15 59.376
844 1 22.98 19.15 63.087
845 1 22.98 22.98 48.243
846 1 22.98 22.98 51.954
847 1 22.98 22.98 55.665
848 1 22.98 22.98 59.376
849 1 22.98 22.98 63.087
850 1 22.98 22.98 66.798
851 1 22.98 26.81 44.532
852 1 22.98 26.81 48.243
853 1 22.98 26.81 51.954
854 1 22.98 26.81 55.665
855 1 22.98 26.81 59.376
856 1 22.98 26.81 63.087
857 1 22.98 26.81 66.798
858 1 22.98 26.81 70.509
859 1 22.98 30.64 40.821
860 1 22.98 30.64 44.532
861 1 22.98 30.64 48.243
862 1 22.98 30.64 51.954
863 1 22.98 30.64 55.665
864 1 22.98 30.64 59.376
865 1 22.98 30.64 63.087
866 1 22.98 30.64 66.798
867 1 22.98 30.64 70.509
868 1 22.98 30.64 74.22
869 1 22.98 34.47 37.11
870 1 22.98 34.47 40.821
871 1 22.98 34.47 44.532
872 1 22.98 34.47 48.243
873 1 22.98 34.47 51.954
874 1 22.98 34.47 55.665
875 1 22.98 34.47 59.376
876 1 22.98 34.47 63.087
877 1 22.98 34.47 66.798
878 1 22.98 34.47 70.509
879 1 22.98 34.47 74.22
880 1 22.98 34.47 77.931
881 1 22.98 38.3 33.399
882 1 22.98 38.3 37.11
883 1 22.98 38.3 40.821
884 1 22.98 38.3 44.532
885 1 22.98 38.3 48.243
886 1 22.98 38.3 51.954
887 1 22.98 38.3 55.665
888 1 22.98 38.3 59.376
889 1 22.98 38.3 63.087
890 1 22.98 38.3 66.798
891 1 22.98 38.3 70.509
892 1 22.98 38.3 74.22
893 1 22.98 38.3 77.931
894 1 22.98 38.3 81.642
895 1 22.98 42.13 29.688
896 1 22.98 42.13 33.399
897 1 22.98 42.13 37.11
898 1 22.98 42.13 40.821
899 1 22.98 42.13 44.532
900 1 22.98 42.13 48.243
901 1 22.98 42.13 51.954
902 1 22.98 42.13 55.665
903 1 22.98 42.13 59.376
904 1 22.98 42.13 63.087
905 1 22.98 42.13 66.798
906 1 22.98 42.13 70.509
907 1 22.98 42.13 74.22
908 1 22.98 42.13 77.931
909 1 22.98 42.13 81.642
910 1 22.98 42.13 85.353
911 1 22.98 45.96 25.977
912 1 22.98 45.96 29.688
913 1 22.98 45.96 33.399
914 1 22.98 45.96 37.11
915 1 22.98 45.96 40.821
916 1 22.98 45.96 44.532
917 1 22.98 45.96 48.243
918 1 22.98 45.96 51.954
919 1 22.98 45.96 55.665
920 1 22.98 45.96 59.376
921 1 22.98 45.96 63.087
922 1 22.98 45.96 66.798
923 1 22.98 45.96 70.509
924 1 22.98 45.96 74.22
925 1 22.98 45.96 77.931
926 1 22.98 45.96 81.642
927 1 22.98 45.96 85.353
928 1 22.98 45.96 89.064
929 1 22.98 49.79 22.266
930 1 22.98 49.79 25.977
931 1 22.98 49.79 29.688
932 1 22.98 49.79 33.399
933 1 22.98 49.79 37.11
934 1 22.98 49.79 40.821
935 1 22.98 49.79 44.532
936 1 22.98 49.79 48.243
937 1 22.98 49.79 51.954
938 1 22.98 49.79 55.665
939 1 22.98 49.79 59.376
940 1 22.98 49.79 63.087
941 1 22.98 49.79 66.798
942 1 22.98 49.79 70.509
943 1 22.98 49.79 74.22
944 1 22.98 49.79 77.931
945 1 22.98 49.79 81.642
946 1 22.98 49.79 85.353
947 1 22.98 49.79 89.064
948 1 22.98 49.79 92.775
949 1 22.98 53.62 18.555
950 1 22.98 53.62 22.266
951 1 22.98 53.62 25.977
952 1 22.98 53.62 29.688
953 1 22.98 53.62 33.399
954 1 22.98 53.62 37.11
955 1 22.98 53.62 40.821
956 1 22.98 53.62 44.532
957 1 22.98 53.62 48.243
958 1 22.98 53.62 51.954
959 1 22.98 53.62 55.665
960 1 22.98 53.62 59.376
961 1 22.98 53.62 63.087
962 1 22.98 53.62 66.798
963 1 22.98 53.62 70.509
964 1 22.98 53.62 74.22
965 1 22.98 53.62 77.931
966 1 22.98 53.62 81.642
967 1 22.98 53.62 85.353
968 1 22.98 53.62 89.064
969 1 22.98 53.62 92.775
970 1 22.98 53.62 96.486
971 1 22.98 57.45 18.555
972 1 22.98 57.45 22.266
973 1 22.98 57.45 25.977
974 1 22.98 57.45 29.688
975 1 22.98 57.45 33.399
976 1 22.98 57.45 37.11
977 1 22.98 57.45 40.821
978 1 22.98 57.45 44.532
979 1 22.98 57.45 48.243
980 1 22.98 57.45 51.954
981 1 22.98 57.45 55.665
982 1 22.98 57.45 59.376
983 1 22.98 57.45 63.087
984 1 22.98 57.45 66.798
985 1 22.98 57.45 70.509
986 1 22.98 57.45 74.22
987 1 22.98 57.45 77.931
988 1 22.98 57.45 81.642
989 1 22.98 57.45 85.353
990 1 22.98 57.45 89.064
991 1 22.98 57.45 92.775
992 1 22.98 57.45 96.486
993 1 22.98 61.28 18.555
994 1 22.98 61.28 22.266
995 1 22.98 61.28 25.977
996 1 22.98 61.28 29.688
997 1 22.98 61.28 33.399
998 1 22.98 61.28 37.11
999 1 22.98 61.28 40.821
1000 1 22.98 61.28 44.532
1001 1 22.98 61.28 48.243
1002 1 22.98 61.28 51.954
1003 1 22.98 61.28 55.665
1004 1 22.98 61.28 59.376
1005 1 22.98 61.28 63.087
1006 1 22.98 61.28 66.798
1007 1 22.98 61.28 70.509
1008 1 22.98 61.28 74.22
1009 1 22.98 61.28 77.931
1010 1 22.98 61.28 81.642
1011 1 22.98 61.28 85.353
1012 1 22.98 61.28 89.064
1013 1 22.98 61.28 92.775
1014 1 22.98 61.28 96.486
1015 1 22.98 65.11 18.555
1016 1 22.98 65.11 22.266
1017 1 22.98 65.11 25.977
1018 1 22.98 65.11 29.688
1019 1 22.98 65.11 33.399
1020 1 22.98 65.11 37.11
1021 1 22.98 65.11 40.821
1022 1 22.98 65.11 44.532
1023 1 22.98 65.11 48.243
1024 1 22.98 65.11 51.954
1025 1 22.98 65.11 55.665
1026 1 22.98 65.11 59.376
1027 1 22.98 65.11 63.087
1028 1 22.98 65.11 66.798
1029 1 22.98 65.11 70.509
1030 1 22.98 65.11 74.22
1031 1 22.98 65.11 77.931
1032 1 22.98 65.11 81.642
1033 1 22.98 65.11 85.353
1034 1 22.98 65.11 89.064
1035 1 22.98 65.11 92.775
1036 1 22.98 65.11 96.486
1037 1 22.98 68.94 22.266
1038 1 22.98 68.94 25.977
1039 1 22.98 68.94 29.688
1040 1 22.98 68.94 33.399
1041 1 22.98 68.94 37.11
1042 1 22.98 68.94 40.821
1043 1 22.98 68.94 44.532
1044 1 22.98 68.94 48.243
1045 1 22.98 68.94 51.954
1046 1 22.98 68.94 55.665
1047 1 22.98 68.94 59.376
1048 1 22.98 68.94 63.087
1049 1 22.98 68.94 66.798
1050 1 22.98 68.94 70.509
1051 1 22.98 68.94 74.22
1052 1 22.98 68.94 77.931
1053 1 22.98 68.94 81.642
1054 1 22.98 68.94 85.353
1055 1 22.98 68.94 89.064
1056 1 22.98 68.94 92.775
1057 1 22.98 72.77 25.977
1058 1 22.98 72.77 29.688
1059 1 22.98 72.77 33.399
1060 1 22.98 72.77 37.11
1061 1 22.98 72.77 40.821
1062 1 22.98 72.77 44.532
1063 1 22.98 72.77 48.243
1064 1 22.98 72.77 51.954
1065 1 22.98 72.77 55.665
1066 1 22.98 72.77 59.376
1067 1 22.98 72.77 63.087
1068 1 22.98 72.77 66.798
1069 1 22.98 72.77 70.509
1070 1 22.98 72.77 74.22
1071 1 22.98 72.77 77.931
1072 1 22.98 72.77 81.642
1073 1 22.98 72.77 85.353
1074 1 22.98 72.77 89.064
1075 1 22.98 76.6 29.688
1076 1 22.98 76.6 33.399
1077 1 22.98 76.6 37.11
1078 1 22.98 76.6 40.821
1079 1 22.98 76.6 44.532
1080 1 22.98 76.6 48.243
1081 1 22.98 76.6 51.954
1082 1 22.98 76.6 55.665
1083 1 22.98 76.6 59.376
1084 1 22.98 76.6 63.087
1085 1 22.98 76.6 66.798
1086 1 22.98 76.6 70.509
1087 1 22.98 76.6 74.22
1088 1 22.98 76.6 77.931
1089 1 22.98 76.6 81.642
1090 1 22.98 76.6 85.353
1091 1 22.98 80.43 33.399
1092 1 22.98 80.43 37.11
1093 1 22.98 80.43 40.821
1094 1 22.98 80.43 44.532
1095 1 22.98 80.43 48.243
1096 1 22.98 80.43 51.954
1097 1 22.98 80.43 55.665
1098 1 22.98 80.43 59.376
1099 1 22.98 80.43 63.087
1100 1 22.98 80.43 66.798
1101 1 22.98 80.43 70.509
1102 1 22.98 80.43 74.22
1103 1 22.98 80.43 77.931
1104 1 22.98 80.43 81.642
1105 1 22.98 84.26 37.11
1106 1 22.98 84.26 40.821
1107 1 22.98 84.26 44.532
1108 1 22.98 84.26 48.243
1109 1 22.98 84.26 51.954
1110 1 22.98 84.26 55.665
1111 1 22.98 84.26 59.376
1112 1 22.98 84.26 63.087
1113 1 22.98 84.26 66.798
1114 1 22.98 84.26 70.509
1115 1 22.98 84.26 74.22
1116 1 22.98 84.26 77.931
1117 1 22.98 88.09 40.821
1118 1 22.98 88.09 44.532
1119 1 22.98 88.09 48.243
1120 1 22.98 88.09 51.954
1121 1 22.98 88.09 55.665
1122 1 22.98 88.09 59.376
1123 1 22.98 88.09 63.087
1124 1 22.98 88.09 66.798
1125 1 22.98 88.09 70.509
1126 1 22.98 88.09 74.22
1127 1 22.98 91.92 44.532
1128 1 22.98 91.92 48.243
1129 1 22.98 91.92 51.954
1130 1 22.98 91.92 55.665
1131 1 22.98 91.92 59.376
1132 1 22.98 91.92 63.087
1133 1 22.98 91.92 66.798
1134 1 22.98 91.92 70.509
1135 1 22.98 95.75 48.243
1136 1 22.98 95.75 51.954
1137 1 22.98 95.75 55.665
1138 1 22.98 95.75 59.376
1139 1 22.98 95.75 63.087
1140 1 22.98 95.75 66.798
1141 1 22.98 99.58 51.954
1142 1 22.98 99.58 55.665
1143 1 22.98 99.58 59.376
1144 1 22.98 99.58 63.087
1145 1 26.81 15.32 51.954
1146 1 26.81 15.32 55.665
1147 1 26.81 15.32 59.376
1148 1 26.81 15.32 63.087
1149 1 26.81 19.15 48.243
1150 1 26.81 19.15 51.954
1151 1 26.81 19.15 55.665
1152 1 26.81 19.15 59.376
1153 1 26.81 19.15 63.087
1154 1 26.81 19.15 66.798
1155 1 26.81 22.98 44.532
1156 1 26.81 22.98 48.243
1157 1 26.81 22.98 51.954
1158 1 26.81 22.98 55.665
1159 1 26.81 22.98 59.376
1160 1 26.81 22.98 63.087
1161 1 26.81 22.98 66.798
1162 1 26.81 22.98 70.509
1163 1 26.81 26.81 40.821
1164 1 26.81 26.81 44.532
1165 1 26.81 26.81 48.243
1166 1 26.81 26.81 51.954
1167 1 26.81 26.81 55.665
1168 1 26.81 26.81 59.376
1169 1 26.81 26.81 63.087
1170 1 26.81 26.81 66.798
1171 1 26.81 26.81 70.509
1172 1 26.81 26.81 74.22
1173 1 26.81 30.64 37.11
1174 1 26.81 30.64 40.821
1175 1 26.81 30.64 44.532
1176 1 26.81 30.64 48.243
1177 1 26.81 30.64 51.954
1178 1 26.81 30.64 55.665
1179 1 26.81 30.64 59.376
1180 1 26.81 30.64 63.087
1181 1 26.81 30.64 66.798
1182 1 26.81 30.64 70.509
1183 1 26.81 30.64 74.22
1184 1 26.81 30.64 77.931
1185 1 26.81 34.47 33.399
1186 1 26.81 34.47 37.11
1187 1 26.81 34.47 40.821
1188 1 26.81 34.47 44.532
1189 1 26.81 34.47 48.243
1190 1 26.81 34.47 51.954
1191 1 26.81 34.47 55.665
1192 1 26.81 34.47 59.376
1193 1 26.81 34.47 63.087
1194 1 26.81 34.47 66.798
1195 1 26.81 34.47 70.509
1196 1 26.81 34.47 74.22
1197 1 26.81 34.47 77.931
1198 1 26.81 34.47 81.642
1199 1 26.81 38.3 29.688
1200 1 26.81 38.3 33.399
1201 1 26.81 38.3 37.11
1202 1 26.81 38.3 40.821
1203 1 26.81 38.3 44.532
1204 1 26.81 38.3 48.243
1205 1 26.81 38.3 51.954
1206 1 26.81 38.3 55.665
1207 1 26.81 38.3 59.376