FePt grain test

9879	atoms
2	atom types
0.0	57.450000	xlo xhi
0.0	57.450000	ylo yhi
0.0	55.665000	zlo zhi
0.0	0.0	0.0	 xy xz yz

Atoms

1	2	28.725000	5.745000	0.000000
2	1	28.725000	3.830000	1.855500
3	1	26.810000	5.745000	1.855500
4	1	30.640000	5.745000	1.855500
5	2	24.895000	9.575000	0.000000
6	1	24.895000	7.660000	1.855500
