LAMMPS_Input_Grains/40000_Atom_Target_Ratio_1.8_perfect_grain

39282 atoms
2 atom types
0 91.92 xlo xhi
0 91.92 ylo yhi
0 89.064 zlo zhi
0.0 0.0 0.0 xy xz yz

Atoms

1 1 0.0 11.49 44.532
2 1 0.0 15.32 40.821
3 1 0.0 15.32 44.532
4 1 0.0 15.32 48.243
5 1 0.0 19.15 37.11
6 1 0.0 19.15 40.821
7 1 0.0 19.15 44.532
8 1 0.0 19.15 48.243
9 1 0.0 19.15 51.954
10 1 0.0 22.98 33.399
11 1 0.0 22.98 37.11
12 1 0.0 22.98 40.821
13 1 0.0 22.98 44.532
14 1 0.0 22.98 48.243
15 1 0.0 22.98 51.954
16 1 0.0 22.98 55.665
17 1 0.0 26.81 29.688
18 1 0.0 26.81 33.399
19 1 0.0 26.81 37.11
20 1 0.0 26.81 40.821
21 1 0.0 26.81 44.532
22 1 0.0 26.81 48.243
23 1 0.0 26.81 51.954
24 1 0.0 26.81 55.665
25 1 0.0 26.81 59.376
26 1 0.0 30.64 25.977
27 1 0.0 30.64 29.688
28 1 0.0 30.64 33.399
29 1 0.0 30.64 37.11
30 1 0.0 30.64 40.821
31 1 0.0 30.64 44.532
32 1 0.0 30.64 48.243
33 1 0.0 30.64 51.954
34 1 0.0 30.64 55.665
35 1 0.0 30.64 59.376
36 1 0.0 30.64 63.087
37 1 0.0 34.47 22.266
38 1 0.0 34.47 25.977
39 1 0.0 34.47 29.688
40 1 0.0 34.47 33.399
41 1 0.0 34.47 37.11
42 1 0.0 34.47 40.821
43 1 0.0 34.47 44.532
44 1 0.0 34.47 48.243
45 1 0.0 34.47 51.954
46 1 0.0 34.47 55.665
47 1 0.0 34.47 59.376
48 1 0.0 34.47 63.087
49 1 0.0 34.47 66.798
50 1 0.0 38.3 18.555
51 1 0.0 38.3 22.266
52 1 0.0 38.3 25.977
53 1 0.0 38.3 29.688
54 1 0.0 38.3 33.399
55 1 0.0 38.3 37.11
56 1 0.0 38.3 40.821
57 1 0.0 38.3 44.532
58 1 0.0 38.3 48.243
59 1 0.0 38.3 51.954
60 1 0.0 38.3 55.665
61 1 0.0 38.3 59.376
62 1 0.0 38.3 63.087
63 1 0.0 38.3 66.798
64 1 0.0 38.3 70.509
65 1 0.0 42.13 14.844
66 1 0.0 42.13 18.555
67 1 0.0 42.13 22.266
68 1 0.0 42.13 25.977
69 1 0.0 42.13 29.688
70 1 0.0 42.13 33.399
71 1 0.0 42.13 37.11
72 1 0.0 42.13 40.821
73 1 0.0 42.13 44.532
74 1 0.0 42.13 48.243
75 1 0.0 42.13 51.954
76 1 0.0 42.13 55.665
77 1 0.0 42.13 59.376
78 1 0.0 42.13 63.087
79 1 0.0 42.13 66.798
80 1 0.0 42.13 70.509
81 1 0.0 42.13 74.22
82 1 0.0 45.96 11.133
83 1 0.0 45.96 14.844
84 1 0.0 45.96 18.555
85 1 0.0 45.96 22.266
86 1 0.0 45.96 25.977
87 1 0.0 45.96 29.688
88 1 0.0 45.96 33.399
89 1 0.0 45.96 37.11
90 1 0.0 45.96 40.821
91 1 0.0 45.96 44.532
92 1 0.0 45.96 48.243
93 1 0.0 45.96 51.954
94 1 0.0 45.96 55.665
95 1 0.0 45.96 59.376
96 1 0.0 45.96 63.087
97 1 0.0 45.96 66.798
98 1 0.0 45.96 70.509
99 1 0.0 45.96 74.22
100 1 0.0 45.96 77.931
101 1 0.0 49.79 14.844
102 1 0.0 49.79 18.555
103 1 0.0 49.79 22.266
104 1 0.0 49.79 25.977
105 1 0.0 49.79 29.688
106 1 0.0 49.79 33.399
107 1 0.0 49.79 37.11
108 1 0.0 49.79 40.821
109 1 0.0 49.79 44.532
110 1 0.0 49.79 48.243
111 1 0.0 49.79 51.954
112 1 0.0 49.79 55.665
113 1 0.0 49.79 59.376
114 1 0.0 49.79 63.087
115 1 0.0 49.79 66.798
116 1 0.0 49.79 70.509
117 1 0.0 49.79 74.22
118 1 0.0 53.62 18.555
119 1 0.0 53.62 22.266
120 1 0.0 53.62 25.977
121 1 0.0 53.62 29.688
122 1 0.0 53.62 33.399
123 1 0.0 53.62 37.11
124 1 0.0 53.62 40.821
125 1 0.0 53.62 44.532
126 1 0.0 53.62 48.243
127 1 0.0 53.62 51.954
128 1 0.0 53.62 55.665
129 1 0.0 53.62 59.376
130 1 0.0 53.62 63.087
131 1 0.0 53.62 66.798
132 1 0.0 53.62 70.509
133 1 0.0 57.45 22.266
134 1 0.0 57.45 25.977
135 1 0.0 57.45 29.688
136 1 0.0 57.45 33.399
137 1 0.0 57.45 37.11
138 1 0.0 57.45 40.821
139 1 0.0 57.45 44.532
140 1 0.0 57.45 48.243
141 1 0.0 57.45 51.954
142 1 0.0 57.45 55.665
143 1 0.0 57.45 59.376
144 1 0.0 57.45 63.087
145 1 0.0 57.45 66.798
146 1 0.0 61.28 25.977
147 1 0.0 61.28 29.688
148 1 0.0 61.28 33.399
149 1 0.0 61.28 37.11
150 1 0.0 61.28 40.821
151 1 0.0 61.28 44.532
152 1 0.0 61.28 48.243
153 1 0.0 61.28 51.954
154 1 0.0 61.28 55.665
155 1 0.0 61.28 59.376
156 1 0.0 61.28 63.087
157 1 0.0 65.11 29.688
158 1 0.0 65.11 33.399
159 1 0.0 65.11 37.11
160 1 0.0 65.11 40.821
161 1 0.0 65.11 44.532
162 1 0.0 65.11 48.243
163 1 0.0 65.11 51.954
164 1 0.0 65.11 55.665
165 1 0.0 65.11 59.376
166 1 0.0 68.94 33.399
167 1 0.0 68.94 37.11
168 1 0.0 68.94 40.821
169 1 0.0 68.94 44.532
170 1 0.0 68.94 48.243
171 1 0.0 68.94 51.954
172 1 0.0 68.94 55.665
173 1 0.0 72.77 37.11
174 1 0.0 72.77 40.821
175 1 0.0 72.77 44.532
176 1 0.0 72.77 48.243
177 1 0.0 72.77 51.954
178 1 0.0 76.6 40.821
179 1 0.0 76.6 44.532
180 1 0.0 76.6 48.243
181 1 0.0 80.43 44.532
182 1 3.83 7.66 44.532
183 1 3.83 11.49 40.821
184 1 3.83 11.49 44.532
185 1 3.83 11.49 48.243
186 1 3.83 15.32 37.11
187 1 3.83 15.32 40.821
188 1 3.83 15.32 44.532
189 1 3.83 15.32 48.243
190 1 3.83 15.32 51.954
191 1 3.83 19.15 33.399
192 1 3.83 19.15 37.11
193 1 3.83 19.15 40.821
194 1 3.83 19.15 44.532
195 1 3.83 19.15 48.243
196 1 3.83 19.15 51.954
197 1 3.83 19.15 55.665
198 1 3.83 22.98 29.688
199 1 3.83 22.98 33.399
200 1 3.83 22.98 37.11
201 1 3.83 22.98 40.821
202 1 3.83 22.98 44.532
203 1 3.83 22.98 48.243
204 1 3.83 22.98 51.954
205 1 3.83 22.98 55.665
206 1 3.83 22.98 59.376
207 1 3.83 26.81 25.977
208 1 3.83 26.81 29.688
209 1 3.83 26.81 33.399
210 1 3.83 26.81 37.11
211 1 3.83 26.81 40.821
212 1 3.83 26.81 44.532
213 1 3.83 26.81 48.243
214 1 3.83 26.81 51.954
215 1 3.83 26.81 55.665
216 1 3.83 26.81 59.376
217 1 3.83 26.81 63.087
218 1 3.83 30.64 22.266
219 1 3.83 30.64 25.977
220 1 3.83 30.64 29.688
221 1 3.83 30.64 33.399
222 1 3.83 30.64 37.11
223 1 3.83 30.64 40.821
224 1 3.83 30.64 44.532
225 1 3.83 30.64 48.243
226 1 3.83 30.64 51.954
227 1 3.83 30.64 55.665
228 1 3.83 30.64 59.376
229 1 3.83 30.64 63.087
230 1 3.83 30.64 66.798
231 1 3.83 34.47 18.555
232 1 3.83 34.47 22.266
233 1 3.83 34.47 25.977
234 1 3.83 34.47 29.688
235 1 3.83 34.47 33.399
236 1 3.83 34.47 37.11
237 1 3.83 34.47 40.821
238 1 3.83 34.47 44.532
239 1 3.83 34.47 48.243
240 1 3.83 34.47 51.954
241 1 3.83 34.47 55.665
242 1 3.83 34.47 59.376
243 1 3.83 34.47 63.087
244 1 3.83 34.47 66.798
245 1 3.83 34.47 70.509
246 1 3.83 38.3 14.844
247 1 3.83 38.3 18.555
248 1 3.83 38.3 22.266
249 1 3.83 38.3 25.977
250 1 3.83 38.3 29.688
251 1 3.83 38.3 33.399
252 1 3.83 38.3 37.11
253 1 3.83 38.3 40.821
254 1 3.83 38.3 44.532
255 1 3.83 38.3 48.243
256 1 3.83 38.3 51.954
257 1 3.83 38.3 55.665
258 1 3.83 38.3 59.376
259 1 3.83 38.3 63.087
260 1 3.83 38.3 66.798
261 1 3.83 38.3 70.509
262 1 3.83 38.3 74.22
263 1 3.83 42.13 11.133
264 1 3.83 42.13 14.844
265 1 3.83 42.13 18.555
266 1 3.83 42.13 22.266
267 1 3.83 42.13 25.977
268 1 3.83 42.13 29.688
269 1 3.83 42.13 33.399
270 1 3.83 42.13 37.11
271 1 3.83 42.13 40.821
272 1 3.83 42.13 44.532
273 1 3.83 42.13 48.243
274 1 3.83 42.13 51.954
275 1 3.83 42.13 55.665
276 1 3.83 42.13 59.376
277 1 3.83 42.13 63.087
278 1 3.83 42.13 66.798
279 1 3.83 42.13 70.509
280 1 3.83 42.13 74.22
281 1 3.83 42.13 77.931
282 1 3.83 45.96 7.422
283 1 3.83 45.96 11.133
284 1 3.83 45.96 14.844
285 1 3.83 45.96 18.555
286 1 3.83 45.96 22.266
287 1 3.83 45.96 25.977
288 1 3.83 45.96 29.688
289 1 3.83 45.96 33.399
290 1 3.83 45.96 37.11
291 1 3.83 45.96 40.821
292 1 3.83 45.96 44.532
293 1 3.83 45.96 48.243
294 1 3.83 45.96 51.954
295 1 3.83 45.96 55.665
296 1 3.83 45.96 59.376
297 1 3.83 45.96 63.087
298 1 3.83 45.96 66.798
299 1 3.83 45.96 70.509
300 1 3.83 45.96 74.22
301 1 3.83 45.96 77.931
302 1 3.83 45.96 81.642
303 1 3.83 49.79 11.133
304 1 3.83 49.79 14.844
305 1 3.83 49.79 18.555
306 1 3.83 49.79 22.266
307 1 3.83 49.79 25.977
308 1 3.83 49.79 29.688
309 1 3.83 49.79 33.399
310 1 3.83 49.79 37.11
311 1 3.83 49.79 40.821
312 1 3.83 49.79 44.532
313 1 3.83 49.79 48.243
314 1 3.83 49.79 51.954
315 1 3.83 49.79 55.665
316 1 3.83 49.79 59.376
317 1 3.83 49.79 63.087
318 1 3.83 49.79 66.798
319 1 3.83 49.79 70.509
320 1 3.83 49.79 74.22
321 1 3.83 49.79 77.931
322 1 3.83 53.62 14.844
323 1 3.83 53.62 18.555
324 1 3.83 53.62 22.266
325 1 3.83 53.62 25.977
326 1 3.83 53.62 29.688
327 1 3.83 53.62 33.399
328 1 3.83 53.62 37.11
329 1 3.83 53.62 40.821
330 1 3.83 53.62 44.532
331 1 3.83 53.62 48.243
332 1 3.83 53.62 51.954
333 1 3.83 53.62 55.665
334 1 3.83 53.62 59.376
335 1 3.83 53.62 63.087
336 1 3.83 53.62 66.798
337 1 3.83 53.62 70.509
338 1 3.83 53.62 74.22
339 1 3.83 57.45 18.555
340 1 3.83 57.45 22.266
341 1 3.83 57.45 25.977
342 1 3.83 57.45 29.688
343 1 3.83 57.45 33.399
344 1 3.83 57.45 37.11
345 1 3.83 57.45 40.821
346 1 3.83 57.45 44.532
347 1 3.83 57.45 48.243
348 1 3.83 57.45 51.954
349 1 3.83 57.45 55.665
350 1 3.83 57.45 59.376
351 1 3.83 57.45 63.087
352 1 3.83 57.45 66.798
353 1 3.83 57.45 70.509
354 1 3.83 61.28 22.266
355 1 3.83 61.28 25.977
356 1 3.83 61.28 29.688
357 1 3.83 61.28 33.399
358 1 3.83 61.28 37.11
359 1 3.83 61.28 40.821
360 1 3.83 61.28 44.532
361 1 3.83 61.28 48.243
362 1 3.83 61.28 51.954
363 1 3.83 61.28 55.665
364 1 3.83 61.28 59.376
365 1 3.83 61.28 63.087
366 1 3.83 61.28 66.798
367 1 3.83 65.11 25.977
368 1 3.83 65.11 29.688
369 1 3.83 65.11 33.399
370 1 3.83 65.11 37.11
371 1 3.83 65.11 40.821
372 1 3.83 65.11 44.532
373 1 3.83 65.11 48.243
374 1 3.83 65.11 51.954
375 1 3.83 65.11 55.665
376 1 3.83 65.11 59.376
377 1 3.83 65.11 63.087
378 1 3.83 68.94 29.688
379 1 3.83 68.94 33.399
380 1 3.83 68.94 37.11
381 1 3.83 68.94 40.821
382 1 3.83 68.94 44.532
383 1 3.83 68.94 48.243
384 1 3.83 68.94 51.954
385 1 3.83 68.94 55.665
386 1 3.83 68.94 59.376
387 1 3.83 72.77 33.399
388 1 3.83 72.77 37.11
389 1 3.83 72.77 40.821
390 1 3.83 72.77 44.532
391 1 3.83 72.77 48.243
392 1 3.83 72.77 51.954
393 1 3.83 72.77 55.665
394 1 3.83 76.6 37.11
395 1 3.83 76.6 40.821
396 1 3.83 76.6 44.532
397 1 3.83 76.6 48.243
398 1 3.83 76.6 51.954
399 1 3.83 80.43 40.821
400 1 3.83 80.43 44.532
401 1 3.83 80.43 48.243
402 1 3.83 84.26 44.532
403 1 7.66 3.83 44.532
404 1 7.66 7.66 40.821
405 1 7.66 7.66 44.532
406 1 7.66 7.66 48.243
407 1 7.66 11.49 37.11
408 1 7.66 11.49 40.821
409 1 7.66 11.49 44.532
410 1 7.66 11.49 48.243
411 1 7.66 11.49 51.954
412 1 7.66 15.32 33.399
413 1 7.66 15.32 37.11
414 1 7.66 15.32 40.821
415 1 7.66 15.32 44.532
416 1 7.66 15.32 48.243
417 1 7.66 15.32 51.954
418 1 7.66 15.32 55.665
419 1 7.66 19.15 29.688
420 1 7.66 19.15 33.399
421 1 7.66 19.15 37.11
422 1 7.66 19.15 40.821
423 1 7.66 19.15 44.532
424 1 7.66 19.15 48.243
425 1 7.66 19.15 51.954
426 1 7.66 19.15 55.665
427 1 7.66 19.15 59.376
428 1 7.66 22.98 25.977
429 1 7.66 22.98 29.688
430 1 7.66 22.98 33.399
431 1 7.66 22.98 37.11
432 1 7.66 22.98 40.821
433 1 7.66 22.98 44.532
434 1 7.66 22.98 48.243
435 1 7.66 22.98 51.954
436 1 7.66 22.98 55.665
437 1 7.66 22.98 59.376
438 1 7.66 22.98 63.087
439 1 7.66 26.81 22.266
440 1 7.66 26.81 25.977
441 1 7.66 26.81 29.688
442 1 7.66 26.81 33.399
443 1 7.66 26.81 37.11
444 1 7.66 26.81 40.821
445 1 7.66 26.81 44.532
446 1 7.66 26.81 48.243
447 1 7.66 26.81 51.954
448 1 7.66 26.81 55.665
449 1 7.66 26.81 59.376
450 1 7.66 26.81 63.087
451 1 7.66 26.81 66.798
452 1 7.66 30.64 18.555
453 1 7.66 30.64 22.266
454 1 7.66 30.64 25.977
455 1 7.66 30.64 29.688
456 1 7.66 30.64 33.399
457 1 7.66 30.64 37.11
458 1 7.66 30.64 40.821
459 1 7.66 30.64 44.532
460 1 7.66 30.64 48.243
461 1 7.66 30.64 51.954
462 1 7.66 30.64 55.665
463 1 7.66 30.64 59.376
464 1 7.66 30.64 63.087
465 1 7.66 30.64 66.798
466 1 7.66 30.64 70.509
467 1 7.66 34.47 14.844
468 1 7.66 34.47 18.555
469 1 7.66 34.47 22.266
470 1 7.66 34.47 25.977
471 1 7.66 34.47 29.688
472 1 7.66 34.47 33.399
473 1 7.66 34.47 37.11
474 1 7.66 34.47 40.821
475 1 7.66 34.47 44.532
476 1 7.66 34.47 48.243
477 1 7.66 34.47 51.954
478 1 7.66 34.47 55.665
479 1 7.66 34.47 59.376
480 1 7.66 34.47 63.087
481 1 7.66 34.47 66.798
482 1 7.66 34.47 70.509
483 1 7.66 34.47 74.22
484 1 7.66 38.3 11.133
485 1 7.66 38.3 14.844
486 1 7.66 38.3 18.555
487 1 7.66 38.3 22.266
488 1 7.66 38.3 25.977
489 1 7.66 38.3 29.688
490 1 7.66 38.3 33.399
491 1 7.66 38.3 37.11
492 1 7.66 38.3 40.821
493 1 7.66 38.3 44.532
494 1 7.66 38.3 48.243
495 1 7.66 38.3 51.954
496 1 7.66 38.3 55.665
497 1 7.66 38.3 59.376
498 1 7.66 38.3 63.087
499 1 7.66 38.3 66.798
500 1 7.66 38.3 70.509
501 1 7.66 38.3 74.22
502 1 7.66 38.3 77.931
503 1 7.66 42.13 7.422
504 1 7.66 42.13 11.133
505 1 7.66 42.13 14.844
506 1 7.66 42.13 18.555
507 1 7.66 42.13 22.266
508 1 7.66 42.13 25.977
509 1 7.66 42.13 29.688
510 1 7.66 42.13 33.399
511 1 7.66 42.13 37.11
512 1 7.66 42.13 40.821
513 1 7.66 42.13 44.532
514 1 7.66 42.13 48.243
515 1 7.66 42.13 51.954
516 1 7.66 42.13 55.665
517 1 7.66 42.13 59.376
518 1 7.66 42.13 63.087
519 1 7.66 42.13 66.798
520 1 7.66 42.13 70.509
521 1 7.66 42.13 74.22
522 1 7.66 42.13 77.931
523 1 7.66 42.13 81.642
524 1 7.66 45.96 3.711
525 1 7.66 45.96 7.422
526 1 7.66 45.96 11.133
527 1 7.66 45.96 14.844
528 1 7.66 45.96 18.555
529 1 7.66 45.96 22.266
530 1 7.66 45.96 25.977
531 1 7.66 45.96 29.688
532 1 7.66 45.96 33.399
533 1 7.66 45.96 37.11
534 1 7.66 45.96 40.821
535 1 7.66 45.96 44.532
536 1 7.66 45.96 48.243
537 1 7.66 45.96 51.954
538 1 7.66 45.96 55.665
539 1 7.66 45.96 59.376
540 1 7.66 45.96 63.087
541 1 7.66 45.96 66.798
542 1 7.66 45.96 70.509
543 1 7.66 45.96 74.22
544 1 7.66 45.96 77.931
545 1 7.66 45.96 81.642
546 1 7.66 45.96 85.353
547 1 7.66 49.79 7.422
548 1 7.66 49.79 11.133
549 1 7.66 49.79 14.844
550 1 7.66 49.79 18.555
551 1 7.66 49.79 22.266
552 1 7.66 49.79 25.977
553 1 7.66 49.79 29.688
554 1 7.66 49.79 33.399
555 1 7.66 49.79 37.11
556 1 7.66 49.79 40.821
557 1 7.66 49.79 44.532
558 1 7.66 49.79 48.243
559 1 7.66 49.79 51.954
560 1 7.66 49.79 55.665
561 1 7.66 49.79 59.376
562 1 7.66 49.79 63.087
563 1 7.66 49.79 66.798
564 1 7.66 49.79 70.509
565 1 7.66 49.79 74.22
566 1 7.66 49.79 77.931
567 1 7.66 49.79 81.642
568 1 7.66 53.62 11.133
569 1 7.66 53.62 14.844
570 1 7.66 53.62 18.555
571 1 7.66 53.62 22.266
572 1 7.66 53.62 25.977
573 1 7.66 53.62 29.688
574 1 7.66 53.62 33.399
575 1 7.66 53.62 37.11
576 1 7.66 53.62 40.821
577 1 7.66 53.62 44.532
578 1 7.66 53.62 48.243
579 1 7.66 53.62 51.954
580 1 7.66 53.62 55.665
581 1 7.66 53.62 59.376
582 1 7.66 53.62 63.087
583 1 7.66 53.62 66.798
584 1 7.66 53.62 70.509
585 1 7.66 53.62 74.22
586 1 7.66 53.62 77.931
587 1 7.66 57.45 14.844
588 1 7.66 57.45 18.555
589 1 7.66 57.45 22.266
590 1 7.66 57.45 25.977
591 1 7.66 57.45 29.688
592 1 7.66 57.45 33.399
593 1 7.66 57.45 37.11
594 1 7.66 57.45 40.821
595 1 7.66 57.45 44.532
596 1 7.66 57.45 48.243
597 1 7.66 57.45 51.954
598 1 7.66 57.45 55.665
599 1 7.66 57.45 59.376
600 1 7.66 57.45 63.087
601 1 7.66 57.45 66.798
602 1 7.66 57.45 70.509
603 1 7.66 57.45 74.22
604 1 7.66 61.28 18.555
605 1 7.66 61.28 22.266
606 1 7.66 61.28 25.977
607 1 7.66 61.28 29.688
608 1 7.66 61.28 33.399
609 1 7.66 61.28 37.11
610 1 7.66 61.28 40.821
611 1 7.66 61.28 44.532
612 1 7.66 61.28 48.243
613 1 7.66 61.28 51.954
614 1 7.66 61.28 55.665
615 1 7.66 61.28 59.376
616 1 7.66 61.28 63.087
617 1 7.66 61.28 66.798
618 1 7.66 61.28 70.509
619 1 7.66 65.11 22.266
620 1 7.66 65.11 25.977
621 1 7.66 65.11 29.688
622 1 7.66 65.11 33.399
623 1 7.66 65.11 37.11
624 1 7.66 65.11 40.821
625 1 7.66 65.11 44.532
626 1 7.66 65.11 48.243
627 1 7.66 65.11 51.954
628 1 7.66 65.11 55.665
629 1 7.66 65.11 59.376
630 1 7.66 65.11 63.087
631 1 7.66 65.11 66.798
632 1 7.66 68.94 25.977
633 1 7.66 68.94 29.688
634 1 7.66 68.94 33.399
635 1 7.66 68.94 37.11
636 1 7.66 68.94 40.821
637 1 7.66 68.94 44.532
638 1 7.66 68.94 48.243
639 1 7.66 68.94 51.954
640 1 7.66 68.94 55.665
641 1 7.66 68.94 59.376
642 1 7.66 68.94 63.087
643 1 7.66 72.77 29.688
644 1 7.66 72.77 33.399
645 1 7.66 72.77 37.11
646 1 7.66 72.77 40.821
647 1 7.66 72.77 44.532
648 1 7.66 72.77 48.243
649 1 7.66 72.77 51.954
650 1 7.66 72.77 55.665
651 1 7.66 72.77 59.376
652 1 7.66 76.6 33.399
653 1 7.66 76.6 37.11
654 1 7.66 76.6 40.821
655 1 7.66 76.6 44.532
656 1 7.66 76.6 48.243
657 1 7.66 76.6 51.954
658 1 7.66 76.6 55.665
659 1 7.66 80.43 37.11
660 1 7.66 80.43 40.821
661 1 7.66 80.43 44.532
662 1 7.66 80.43 48.243
663 1 7.66 80.43 51.954
664 1 7.66 84.26 40.821
665 1 7.66 84.26 44.532
666 1 7.66 84.26 48.243
667 1 7.66 88.09 44.532
668 1 11.49 0.0 44.532
669 1 11.49 3.83 40.821
670 1 11.49 3.83 44.532
671 1 11.49 3.83 48.243
672 1 11.49 7.66 37.11
673 1 11.49 7.66 40.821
674 1 11.49 7.66 44.532
675 1 11.49 7.66 48.243
676 1 11.49 7.66 51.954
677 1 11.49 11.49 33.399
678 1 11.49 11.49 37.11
679 1 11.49 11.49 40.821
680 1 11.49 11.49 44.532
681 1 11.49 11.49 48.243
682 1 11.49 11.49 51.954
683 1 11.49 11.49 55.665
684 1 11.49 15.32 29.688
685 1 11.49 15.32 33.399
686 1 11.49 15.32 37.11
687 1 11.49 15.32 40.821
688 1 11.49 15.32 44.532
689 1 11.49 15.32 48.243
690 1 11.49 15.32 51.954
691 1 11.49 15.32 55.665
692 1 11.49 15.32 59.376
693 1 11.49 19.15 25.977
694 1 11.49 19.15 29.688
695 1 11.49 19.15 33.399
696 1 11.49 19.15 37.11
697 1 11.49 19.15 40.821
698 1 11.49 19.15 44.532
699 1 11.49 19.15 48.243
700 1 11.49 19.15 51.954
701 1 11.49 19.15 55.665
702 1 11.49 19.15 59.376
703 1 11.49 19.15 63.087
704 1 11.49 22.98 22.266
705 1 11.49 22.98 25.977
706 1 11.49 22.98 29.688
707 1 11.49 22.98 33.399
708 1 11.49 22.98 37.11
709 1 11.49 22.98 40.821
710 1 11.49 22.98 44.532
711 1 11.49 22.98 48.243
712 1 11.49 22.98 51.954
713 1 11.49 22.98 55.665
714 1 11.49 22.98 59.376
715 1 11.49 22.98 63.087
716 1 11.49 22.98 66.798
717 1 11.49 26.81 18.555
718 1 11.49 26.81 22.266
719 1 11.49 26.81 25.977
720 1 11.49 26.81 29.688
721 1 11.49 26.81 33.399
722 1 11.49 26.81 37.11
723 1 11.49 26.81 40.821
724 1 11.49 26.81 44.532
725 1 11.49 26.81 48.243
726 1 11.49 26.81 51.954
727 1 11.49 26.81 55.665
728 1 11.49 26.81 59.376
729 1 11.49 26.81 63.087
730 1 11.49 26.81 66.798
731 1 11.49 26.81 70.509
732 1 11.49 30.64 14.844
733 1 11.49 30.64 18.555
734 1 11.49 30.64 22.266
735 1 11.49 30.64 25.977
736 1 11.49 30.64 29.688
737 1 11.49 30.64 33.399
738 1 11.49 30.64 37.11
739 1 11.49 30.64 40.821
740 1 11.49 30.64 44.532
741 1 11.49 30.64 48.243
742 1 11.49 30.64 51.954
743 1 11.49 30.64 55.665
744 1 11.49 30.64 59.376
745 1 11.49 30.64 63.087
746 1 11.49 30.64 66.798
747 1 11.49 30.64 70.509
748 1 11.49 30.64 74.22
749 1 11.49 34.47 11.133
750 1 11.49 34.47 14.844
751 1 11.49 34.47 18.555
752 1 11.49 34.47 22.266
753 1 11.49 34.47 25.977
754 1 11.49 34.47 29.688
755 1 11.49 34.47 33.399
756 1 11.49 34.47 37.11
757 1 11.49 34.47 40.821
758 1 11.49 34.47 44.532
759 1 11.49 34.47 48.243
760 1 11.49 34.47 51.954
761 1 11.49 34.47 55.665
762 1 11.49 34.47 59.376
763 1 11.49 34.47 63.087
764 1 11.49 34.47 66.798
765 1 11.49 34.47 70.509
766 1 11.49 34.47 74.22
767 1 11.49 34.47 77.931
768 1 11.49 38.3 7.422
769 1 11.49 38.3 11.133
770 1 11.49 38.3 14.844
771 1 11.49 38.3 18.555
772 1 11.49 38.3 22.266
773 1 11.49 38.3 25.977
774 1 11.49 38.3 29.688
775 1 11.49 38.3 33.399
776 1 11.49 38.3 37.11
777 1 11.49 38.3 40.821
778 1 11.49 38.3 44.532
779 1 11.49 38.3 48.243
780 1 11.49 38.3 51.954
781 1 11.49 38.3 55.665
782 1 11.49 38.3 59.376
783 1 11.49 38.3 63.087
784 1 11.49 38.3 66.798
785 1 11.49 38.3 70.509
786 1 11.49 38.3 74.22
787 1 11.49 38.3 77.931
788 1 11.49 38.3 81.642
789 1 11.49 42.13 3.711
790 1 11.49 42.13 7.422
791 1 11.49 42.13 11.133
792 1 11.49 42.13 14.844
793 1 11.49 42.13 18.555
794 1 11.49 42.13 22.266
795 1 11.49 42.13 25.977
796 1 11.49 42.13 29.688
797 1 11.49 42.13 33.399
798 1 11.49 42.13 37.11
799 1 11.49 42.13 40.821
800 1 11.49 42.13 44.532
801 1 11.49 42.13 48.243
802 1 11.49 42.13 51.954
803 1 11.49 42.13 55.665
804 1 11.49 42.13 59.376
805 1 11.49 42.13 63.087
806 1 11.49 42.13 66.798
807 1 11.49 42.13 70.509
808 1 11.49 42.13 74.22
809 1 11.49 42.13 77.931
810 1 11.49 42.13 81.642
811 1 11.49 42.13 85.353
812 1 11.49 45.96 0.0
813 1 11.49 45.96 3.711
814 1 11.49 45.96 7.422
815 1 11.49 45.96 11.133
816 1 11.49 45.96 14.844
817 1 11.49 45.96 18.555
818 1 11.49 45.96 22.266
819 1 11.49 45.96 25.977
820 1 11.49 45.96 29.688
821 1 11.49 45.96 33.399
822 1 11.49 45.96 37.11
823 1 11.49 45.96 40.821
824 1 11.49 45.96 44.532
825 1 11.49 45.96 48.243
826 1 11.49 45.96 51.954
827 1 11.49 45.96 55.665
828 1 11.49 45.96 59.376
829 1 11.49 45.96 63.087
830 1 11.49 45.96 66.798
831 1 11.49 45.96 70.509
832 1 11.49 45.96 74.22
833 1 11.49 45.96 77.931
834 1 11.49 45.96 81.642
835 1 11.49 45.96 85.353
836 1 11.49 49.79 3.711
837 1 11.49 49.79 7.422
838 1 11.49 49.79 11.133
839 1 11.49 49.79 14.844
840 1 11.49 49.79 18.555
841 1 11.49 49.79 22.266
842 1 11.49 49.79 25.977
843 1 11.49 49.79 29.688
844 1 11.49 49.79 33.399
845 1 11.49 49.79 37.11
846 1 11.49 49.79 40.821
847 1 11.49 49.79 44.532
848 1 11.49 49.79 48.243
849 1 11.49 49.79 51.954
850 1 11.49 49.79 55.665
851 1 11.49 49.79 59.376
852 1 11.49 49.79 63.087
853 1 11.49 49.79 66.798
854 1 11.49 49.79 70.509
855 1 11.49 49.79 74.22
856 1 11.49 49.79 77.931
857 1 11.49 49.79 81.642
858 1 11.49 49.79 85.353
859 1 11.49 53.62 7.422
860 1 11.49 53.62 11.133
861 1 11.49 53.62 14.844
862 1 11.49 53.62 18.555
863 1 11.49 53.62 22.266
864 1 11.49 53.62 25.977
865 1 11.49 53.62 29.688
866 1 11.49 53.62 33.399
867 1 11.49 53.62 37.11
868 1 11.49 53.62 40.821
869 1 11.49 53.62 44.532
870 1 11.49 53.62 48.243
871 1 11.49 53.62 51.954
872 1 11.49 53.62 55.665
873 1 11.49 53.62 59.376
874 1 11.49 53.62 63.087
875 1 11.49 53.62 66.798
876 1 11.49 53.62 70.509
877 1 11.49 53.62 74.22
878 1 11.49 53.62 77.931
879 1 11.49 53.62 81.642
880 1 11.49 57.45 11.133
881 1 11.49 57.45 14.844
882 1 11.49 57.45 18.555
883 1 11.49 57.45 22.266
884 1 11.49 57.45 25.977
885 1 11.49 57.45 29.688
886 1 11.49 57.45 33.399
887 1 11.49 57.45 37.11
888 1 11.49 57.45 40.821
889 1 11.49 57.45 44.532
890 1 11.49 57.45 48.243
891 1 11.49 57.45 51.954
892 1 11.49 57.45 55.665
893 1 11.49 57.45 59.376
894 1 11.49 57.45 63.087
895 1 11.49 57.45 66.798
896 1 11.49 57.45 70.509
897 1 11.49 57.45 74.22
898 1 11.49 57.45 77.931
899 1 11.49 61.28 14.844
900 1 11.49 61.28 18.555
901 1 11.49 61.28 22.266
902 1 11.49 61.28 25.977
903 1 11.49 61.28 29.688
904 1 11.49 61.28 33.399
905 1 11.49 61.28 37.11
906 1 11.49 61.28 40.821
907 1 11.49 61.28 44.532
908 1 11.49 61.28 48.243
909 1 11.49 61.28 51.954
910 1 11.49 61.28 55.665
911 1 11.49 61.28 59.376
912 1 11.49 61.28 63.087
913 1 11.49 61.28 66.798
914 1 11.49 61.28 70.509
915 1 11.49 61.28 74.22
916 1 11.49 65.11 18.555
917 1 11.49 65.11 22.266
918 1 11.49 65.11 25.977
919 1 11.49 65.11 29.688
920 1 11.49 65.11 33.399
921 1 11.49 65.11 37.11
922 1 11.49 65.11 40.821
923 1 11.49 65.11 44.532
924 1 11.49 65.11 48.243
925 1 11.49 65.11 51.954
926 1 11.49 65.11 55.665
927 1 11.49 65.11 59.376
928 1 11.49 65.11 63.087
929 1 11.49 65.11 66.798
930 1 11.49 65.11 70.509
931 1 11.49 68.94 22.266
932 1 11.49 68.94 25.977
933 1 11.49 68.94 29.688
934 1 11.49 68.94 33.399
935 1 11.49 68.94 37.11
936 1 11.49 68.94 40.821
937 1 11.49 68.94 44.532
938 1 11.49 68.94 48.243
939 1 11.49 68.94 51.954
940 1 11.49 68.94 55.665
941 1 11.49 68.94 59.376
942 1 11.49 68.94 63.087
943 1 11.49 68.94 66.798
944 1 11.49 72.77 25.977
945 1 11.49 72.77 29.688
946 1 11.49 72.77 33.399
947 1 11.49 72.77 37.11
948 1 11.49 72.77 40.821
949 1 11.49 72.77 44.532
950 1 11.49 72.77 48.243
951 1 11.49 72.77 51.954
952 1 11.49 72.77 55.665
953 1 11.49 72.77 59.376
954 1 11.49 72.77 63.087
955 1 11.49 76.6 29.688
956 1 11.49 76.6 33.399
957 1 11.49 76.6 37.11
958 1 11.49 76.6 40.821
959 1 11.49 76.6 44.532
960 1 11.49 76.6 48.243
961 1 11.49 76.6 51.954
962 1 11.49 76.6 55.665
963 1 11.49 76.6 59.376
964 1 11.49 80.43 33.399
965 1 11.49 80.43 37.11
966 1 11.49 80.43 40.821
967 1 11.49 80.43 44.532
968 1 11.49 80.43 48.243
969 1 11.49 80.43 51.954
970 1 11.49 80.43 55.665
971 1 11.49 84.26 37.11
972 1 11.49 84.26 40.821
973 1 11.49 84.26 44.532
974 1 11.49 84.26 48.243
975 1 11.49 84.26 51.954
976 1 11.49 88.09 40.821
977 1 11.49 88.09 44.532
978 1 11.49 88.09 48.243
979 1 15.32 0.0 40.821
980 1 15.32 0.0 44.532
981 1 15.32 0.0 48.243
982 1 15.32 3.83 37.11
983 1 15.32 3.83 40.821
984 1 15.32 3.83 44.532
985 1 15.32 3.83 48.243
986 1 15.32 3.83 51.954
987 1 15.32 7.66 33.399
988 1 15.32 7.66 37.11
989 1 15.32 7.66 40.821
990 1 15.32 7.66 44.532
991 1 15.32 7.66 48.243
992 1 15.32 7.66 51.954
993 1 15.32 7.66 55.665
994 1 15.32 11.49 29.688
995 1 15.32 11.49 33.399
996 1 15.32 11.49 37.11
997 1 15.32 11.49 40.821
998 1 15.32 11.49 44.532
999 1 15.32 11.49 48.243
1000 1 15.32 11.49 51.954
1001 1 15.32 11.49 55.665
1002 1 15.32 11.49 59.376
1003 1 15.32 15.32 25.977
1004 1 15.32 15.32 29.688
1005 1 15.32 15.32 33.399
1006 1 15.32 15.32 37.11
1007 1 15.32 15.32 40.821
1008 1 15.32 15.32 44.532
1009 1 15.32 15.32 48.243
1010 1 15.32 15.32 51.954
1011 1 15.32 15.32 55.665
1012 1 15.32 15.32 59.376
1013 1 15.32 15.32 63.087
1014 1 15.32 19.15 22.266
1015 1 15.32 19.15 25.977
1016 1 15.32 19.15 29.688
1017 1 15.32 19.15 33.399
1018 1 15.32 19.15 37.11
1019 1 15.32 19.15 40.821
1020 1 15.32 19.15 44.532
1021 1 15.32 19.15 48.243
1022 1 15.32 19.15 51.954
1023 1 15.32 19.15 55.665
1024 1 15.32 19.15 59.376
1025 1 15.32 19.15 63.087
1026 1 15.32 19.15 66.798
1027 1 15.32 22.98 18.555
1028 1 15.32 22.98 22.266
1029 1 15.32 22.98 25.977
1030 1 15.32 22.98 29.688
1031 1 15.32 22.98 33.399
1032 1 15.32 22.98 37.11
1033 1 15.32 22.98 40.821
1034 1 15.32 22.98 44.532
1035 1 15.32 22.98 48.243
1036 1 15.32 22.98 51.954
1037 1 15.32 22.98 55.665
1038 1 15.32 22.98 59.376
1039 1 15.32 22.98 63.087
1040 1 15.32 22.98 66.798
1041 1 15.32 22.98 70.509
1042 1 15.32 26.81 14.844
1043 1 15.32 26.81 18.555
1044 1 15.32 26.81 22.266
1045 1 15.32 26.81 25.977
1046 1 15.32 26.81 29.688
1047 1 15.32 26.81 33.399
1048 1 15.32 26.81 37.11
1049 1 15.32 26.81 40.821
1050 1 15.32 26.81 44.532
1051 1 15.32 26.81 48.243
1052 1 15.32 26.81 51.954
1053 1 15.32 26.81 55.665
1054 1 15.32 26.81 59.376
1055 1 15.32 26.81 63.087
1056 1 15.32 26.81 66.798
1057 1 15.32 26.81 70.509
1058 1 15.32 26.81 74.22
1059 1 15.32 30.64 11.133
1060 1 15.32 30.64 14.844
1061 1 15.32 30.64 18.555
1062 1 15.32 30.64 22.266
1063 1 15.32 30.64 25.977
1064 1 15.32 30.64 29.688
1065 1 15.32 30.64 33.399
1066 1 15.32 30.64 37.11
1067 1 15.32 30.64 40.821
1068 1 15.32 30.64 44.532
1069 1 15.32 30.64 48.243
1070 1 15.32 30.64 51.954
1071 1 15.32 30.64 55.665
1072 1 15.32 30.64 59.376
1073 1 15.32 30.64 63.087
1074 1 15.32 30.64 66.798
1075 1 15.32 30.64 70.509
1076 1 15.32 30.64 74.22
1077 1 15.32 30.64 77.931
1078 1 15.32 34.47 7.422
1079 1 15.32 34.47 11.133
1080 1 15.32 34.47 14.844
1081 1 15.32 34.47 18.555
1082 1 15.32 34.47 22.266
1083 1 15.32 34.47 25.977
1084 1 15.32 34.47 29.688
1085 1 15.32 34.47 33.399
1086 1 15.32 34.47 37.11
1087 1 15.32 34.47 40.821
1088 1 15.32 34.47 44.532
1089 1 15.32 34.47 48.243
1090 1 15.32 34.47 51.954
1091 1 15.32 34.47 55.665
1092 1 15.32 34.47 59.376
1093 1 15.32 34.47 63.087
1094 1 15.32 34.47 66.798
1095 1 15.32 34.47 70.509
1096 1 15.32 34.47 74.22
1097 1 15.32 34.47 77.931
1098 1 15.32 34.47 81.642
1099 1 15.32 38.3 3.711
1100 1 15.32 38.3 7.422
1101 1 15.32 38.3 11.133
1102 1 15.32 38.3 14.844
1103 1 15.32 38.3 18.555
1104 1 15.32 38.3 22.266
1105 1 15.32 38.3 25.977
1106 1 15.32 38.3 29.688
1107 1 15.32 38.3 33.399
1108 1 15.32 38.3 37.11
1109 1 15.32 38.3 40.821
1110 1 15.32 38.3 44.532
1111 1 15.32 38.3 48.243
1112 1 15.32 38.3 51.954
1113 1 15.32 38.3 55.665
1114 1 15.32 38.3 59.376
1115 1 15.32 38.3 63.087
1116 1 15.32 38.3 66.798
1117 1 15.32 38.3 70.509
1118 1 15.32 38.3 74.22
1119 1 15.32 38.3 77.931
1120 1 15.32 38.3 81.642
1121 1 15.32 38.3 85.353
1122 1 15.32 42.13 0.0
1123 1 15.32 42.13 3.711
1124 1 15.32 42.13 7.422
1125 1 15.32 42.13 11.133
1126 1 15.32 42.13 14.844
1127 1 15.32 42.13 18.555
1128 1 15.32 42.13 22.266
1129 1 15.32 42.13 25.977
1130 1 15.32 42.13 29.688
1131 1 15.32 42.13 33.399
1132 1 15.32 42.13 37.11
1133 1 15.32 42.13 40.821
1134 1 15.32 42.13 44.532
1135 1 15.32 42.13 48.243
1136 1 15.32 42.13 51.954
1137 1 15.32 42.13 55.665
1138 1 15.32 42.13 59.376
1139 1 15.32 42.13 63.087
1140 1 15.32 42.13 66.798
1141 1 15.32 42.13 70.509
1142 1 15.32 42.13 74.22
1143 1 15.32 42.13 77.931
1144 1 15.32 42.13 81.642
1145 1 15.32 42.13 85.353
1146 1 15.32 45.96 0.0
1147 1 15.32 45.96 3.711
1148 1 15.32 45.96 7.422
1149 1 15.32 45.96 11.133
1150 1 15.32 45.96 14.844
1151 1 15.32 45.96 18.555
1152 1 15.32 45.96 22.266
1153 1 15.32 45.96 25.977
1154 1 15.32 45.96 29.688
1155 1 15.32 45.96 33.399
1156 1 15.32 45.96 37.11
1157 1 15.32 45.96 40.821
1158 1 15.32 45.96 44.532
1159 1 15.32 45.96 48.243
1160 1 15.32 45.96 51.954
1161 1 15.32 45.96 55.665
1162 1 15.32 45.96 59.376
1163 1 15.32 45.96 63.087
1164 1 15.32 45.96 66.798
1165 1 15.32 45.96 70.509
1166 1 15.32 45.96 74.22
1167 1 15.32 45.96 77.931
1168 1 15.32 45.96 81.642
1169 1 15.32 45.96 85.353
1170 1 15.32 49.79 0.0
1171 1 15.32 49.79 3.711
1172 1 15.32 49.79 7.422
1173 1 15.32 49.79 11.133
1174 1 15.32 49.79 14.844
1175 1 15.32 49.79 18.555
1176 1 15.32 49.79 22.266
1177 1 15.32 49.79 25.977
1178 1 15.32 49.79 29.688
1179 1 15.32 49.79 33.399
1180 1 15.32 49.79 37.11
1181 1 15.32 49.79 40.821
1182 1 15.32 49.79 44.532
1183 1 15.32 49.79 48.243
1184 1 15.32 49.79 51.954
1185 1 15.32 49.79 55.665
1186 1 15.32 49.79 59.376
1187 1 15.32 49.79 63.087
1188 1 15.32 49.79 66.798
1189 1 15.32 49.79 70.509
1190 1 15.32 49.79 74.22
1191 1 15.32 49.79 77.931
1192 1 15.32 49.79 81.642
1193 1 15.32 49.79 85.353
1194 1 15.32 53.62 3.711
1195 1 15.32 53.62 7.422
1196 1 15.32 53.62 11.133
1197 1 15.32 53.62 14.844
1198 1 15.32 53.62 18.555
1199 1 15.32 53.62 22.266
1200 1 15.32 53.62 25.977
1201 1 15.32 53.62 29.688
1202 1 15.32 53.62 33.399
1203 1 15.32 53.62 37.11
1204 1 15.32 53.62 40.821
1205 1 15.32 53.62 44.532
1206 1 15.32 53.62 48.243
1207 1 15.32 53.62 51.954
1208 1 15.32 53.62 55.665
1209 1 15.32 53.62 59.376
1210 1 15.32 53.62 63.087
1211 1 15.32 53.62 66.798
1212 1 15.32 53.62 70.509
1213 1 15.32 53.62 74.22
1214 1 15.32 53.62 77.931
1215 1 15.32 53.62 81.642
1216 1 15.32 53.62 85.353
1217 1 15.32 57.45 7.422
1218 1 15.32 57.45 11.133
1219 1 15.32 57.45 14.844
1220 1 15.32 57.45 18.555
1221 1 15.32 57.45 22.266
1222 1 15.32 57.45 25.977
1223 1 15.32 57.45 29.688
1224 1 15.32 57.45 33.399
1225 1 15.32 57.45 37.11
1226 1 15.32 57.45 40.821
1227 1 15.32 57.45 44.532
1228 1 15.32 57.45 48.243
1229 1 15.32 57.45 51.954
1230 1 15.32 57.45 55.665
1231 1 15.32 57.45 59.376
1232 1 15.32 57.45 63.087
1233 1 15.32 57.45 66.798
1234 1 15.32 57.45 70.509