LAMMPS (31 May 2019)
#FePt_L10_100-A1_001
units metal
dimension 3
boundary p p p

atom_style atomic
pair_style meam/c
read_data FePt_L10_100-A1_001_cell_1.in group interface_1_atoms
  triclinic box = (-2 -2 -2) to (180.325 196.575 34.3958) with tilt (0 0 0)
  5 by 6 by 1 MPI processor grid
  reading atoms ...
  90846 atoms
  read_data CPU = 0.256681 secs
change_box all x final 0.0 178.32512549999998 y final 8.326672684688674e-17 195.62436200000002 z final 0.0 67.306484 units box
  triclinic box = (0 -2 -2) to (178.325 196.575 34.3958) with tilt (0 0 0)
  triclinic box = (0 8.32667e-17 -2) to (178.325 195.624 34.3958) with tilt (0 0 0)
  triclinic box = (0 8.32667e-17 0) to (178.325 195.624 67.3065) with tilt (0 0 0)
read_data FePt_L10_100-A1_001_cell_2.in group interface_2_atoms add append
  triclinic box = (-2 -1.90564 0) to (180.295 197.624 69.3065) with tilt (0 0 0)
  3 by 5 by 2 MPI processor grid
  reading atoms ...
  87138 atoms
  read_data CPU = 0.221723 secs

#Pair_Coeff if MEAM
pair_coeff * * library.meam Fe(L10) Pt(L10) FePt.meam Fe(L10) Pt(L10)
Reading potential file library.meam with DATE: 2012-06-29
Reading potential file FePt.meam with DATE: 2007-06-11

#Frozen Region
region frozen_region block $(xlo+8) $(xhi-8) $(ylo+8) $(yhi-8) $(zlo+8) $(zhi-8) side out
region frozen_region block 6 $(xhi-8) $(ylo+8) $(yhi-8) $(zlo+8) $(zhi-8) side out
region frozen_region block 6 172.29499999999998749 $(ylo+8) $(yhi-8) $(zlo+8) $(zhi-8) side out
region frozen_region block 6 172.29499999999998749 6.094362000000000279 $(yhi-8) $(zlo+8) $(zhi-8) side out
region frozen_region block 6 172.29499999999998749 6.094362000000000279 189.62436200000001918 $(zlo+8) $(zhi-8) side out
region frozen_region block 6 172.29499999999998749 6.094362000000000279 189.62436200000001918 8 $(zhi-8) side out
region frozen_region block 6 172.29499999999998749 6.094362000000000279 189.62436200000001918 8 61.306483999999997536 side out
group frozen_atoms region frozen_region
64634 atoms in group frozen_atoms
velocity frozen_atoms set 0 0 0
fix freeze frozen_atoms setforce 0 0 0

#Interface Region
region interface_region block $(xlo+8) $(xhi-8) $(ylo+8) $(yhi-8) $(zlo+8) $(zhi-8)
region interface_region block 6 $(xhi-8) $(ylo+8) $(yhi-8) $(zlo+8) $(zhi-8)
region interface_region block 6 172.29499999999998749 $(ylo+8) $(yhi-8) $(zlo+8) $(zhi-8)
region interface_region block 6 172.29499999999998749 6.094362000000000279 $(yhi-8) $(zlo+8) $(zhi-8)
region interface_region block 6 172.29499999999998749 6.094362000000000279 189.62436200000001918 $(zlo+8) $(zhi-8)
region interface_region block 6 172.29499999999998749 6.094362000000000279 189.62436200000001918 8 $(zhi-8)
region interface_region block 6 172.29499999999998749 6.094362000000000279 189.62436200000001918 8 61.306483999999997536
group interface_atoms region interface_region
113350 atoms in group interface_atoms

#Interface Region Setup
group unfrozen_interface_1_atoms intersect interface_atoms interface_1_atoms
56160 atoms in group unfrozen_interface_1_atoms
group unfrozen_interface_2_atoms intersect interface_atoms interface_2_atoms
57190 atoms in group unfrozen_interface_2_atoms

#Full Interface Computes
compute per_atom all pe/atom
compute interface_energy interface_atoms reduce sum c_per_atom
variable number_of_interface_atoms equal count(interface_atoms)
variable interface_energy_per_atom equal c_interface_energy/v_number_of_interface_atoms

#Interface 1 Computes
compute interface_1_energy unfrozen_interface_1_atoms reduce sum c_per_atom
variable number_of_unfrozen_interface_1_atoms equal count(unfrozen_interface_1_atoms)
variable interface_1_energy_per_atom equal c_interface_1_energy/v_number_of_unfrozen_interface_1_atoms

#Interface 2 Computes
compute interface_2_energy unfrozen_interface_2_atoms reduce sum c_per_atom
variable number_of_unfrozen_interface_2_atoms equal count(unfrozen_interface_2_atoms)
variable interface_2_energy_per_atom equal c_interface_2_energy/v_number_of_unfrozen_interface_2_atoms

#Atom Type Computes
group atom_type_1 type 1
89182 atoms in group atom_type_1
group atom_type_2 type 2
88802 atoms in group atom_type_2

#Atom interface_1 Type 1 Computes
group type_1_interface_1_atoms intersect atom_type_1 unfrozen_interface_1_atoms
28080 atoms in group type_1_interface_1_atoms
compute type_1_interface_1_energy type_1_interface_1_atoms reduce sum c_per_atom
variable number_of_type_1_interface_1_atoms equal count(type_1_interface_1_atoms)
variable interface_1_type_1_energy_per_atom equal c_type_1_interface_1_energy/v_number_of_type_1_interface_1_atoms

#Atom interface_1 Type 2 Computes
group type_2_interface_1_atoms intersect atom_type_2 unfrozen_interface_1_atoms
28080 atoms in group type_2_interface_1_atoms
compute type_2_interface_1_energy type_2_interface_1_atoms reduce sum c_per_atom
variable number_of_type_2_interface_1_atoms equal count(type_2_interface_1_atoms)
variable interface_1_type_2_energy_per_atom equal c_type_2_interface_1_energy/v_number_of_type_2_interface_1_atoms

#Atom interface_2 Type 1 Computes
group type_1_interface_2_atoms intersect atom_type_1 unfrozen_interface_2_atoms
28662 atoms in group type_1_interface_2_atoms
compute type_1_interface_2_energy type_1_interface_2_atoms reduce sum c_per_atom
variable number_of_type_1_interface_2_atoms equal count(type_1_interface_2_atoms)
variable interface_2_type_1_energy_per_atom equal c_type_1_interface_2_energy/v_number_of_type_1_interface_2_atoms

#Atom interface_2 Type 2 Computes
group type_2_interface_2_atoms intersect atom_type_2 unfrozen_interface_2_atoms
28528 atoms in group type_2_interface_2_atoms
compute type_2_interface_2_energy type_2_interface_2_atoms reduce sum c_per_atom
variable number_of_type_2_interface_2_atoms equal count(type_2_interface_2_atoms)
variable interface_2_type_2_energy_per_atom equal c_type_2_interface_2_energy/v_number_of_type_2_interface_2_atoms

#Stress computations
compute stress interface_atoms stress/atom NULL
variable total_stress atom abs(c_stress[1])+abs(c_stress[2])+abs(c_stress[3])+abs(c_stress[4])+abs(c_stress[5])+abs(c_stress[6])
variable average_stress atom v_total_stress/6

#Thermo output style
thermo_style custom step temp epair emol etotal press c_interface_energy v_number_of_interface_atoms v_interface_energy_per_atom c_interface_1_energy v_number_of_unfrozen_interface_1_atoms v_interface_1_energy_per_atom c_interface_2_energy v_number_of_unfrozen_interface_2_atoms v_interface_2_energy_per_atom c_type_1_interface_1_energy v_number_of_type_1_interface_1_atoms v_interface_1_type_1_energy_per_atom c_type_1_interface_2_energy v_number_of_type_1_interface_2_atoms v_interface_2_type_1_energy_per_atom c_type_2_interface_1_energy v_number_of_type_2_interface_1_atoms v_interface_1_type_2_energy_per_atom c_type_2_interface_2_energy v_number_of_type_2_interface_2_atoms v_interface_2_type_2_energy_per_atom

thermo 1000

#Dump custom setup
dump MiDump all custom 100 interface_nvt.xyz id type xs ys zs fx fy fz c_stress[1] c_stress[2] c_stress[3] c_stress[4] c_stress[5] c_stress[6] v_average_stress v_total_stress
fix run all nvt temp 1.0 1.0 $(100.0*dt)
fix run all nvt temp 1.0 1.0 0.10000000000000000555
run 8000
Neighbor list info ...
  update every 1 steps, delay 10 steps, check yes
  max neighbors/atom: 2000, page size: 100000
  master list distance cutoff = 6
  ghost atom cutoff = 6
  binsize = 3, bins = 61 67 24
  2 neighbor lists, perpetual/occasional/extra = 2 0 0
  (1) pair meam/c, perpetual
      attributes: full, newton on
      pair build: full/bin/atomonly
      stencil: full/bin/3d
      bin: standard
  (2) pair meam/c, perpetual, half/full from (1)
      attributes: half, newton on
      pair build: halffull/newton
      stencil: none
      bin: none
Per MPI rank memory allocation (min/avg/max) = 17.93 | 18.93 | 20.38 Mbytes
Step Temp E_pair E_mol TotEng Press c_interface_energy v_number_of_interface_atoms v_interface_energy_per_atom c_interface_1_energy v_number_of_unfrozen_interface_1_atoms v_interface_1_energy_per_atom c_interface_2_energy v_number_of_unfrozen_interface_2_atoms v_interface_2_energy_per_atom c_type_1_interface_1_energy v_number_of_type_1_interface_1_atoms v_interface_1_type_1_energy_per_atom c_type_1_interface_2_energy v_number_of_type_1_interface_2_atoms v_interface_2_type_1_energy_per_atom c_type_2_interface_1_energy v_number_of_type_2_interface_1_atoms v_interface_1_type_2_energy_per_atom c_type_2_interface_2_energy v_number_of_type_2_interface_2_atoms v_interface_2_type_2_energy_per_atom 
       0            0   -960605.33            0   -960605.33    50229.153   -619647.19       113350   -5.4666713    -306481.1        56160   -5.4572846   -313166.09        57190    -5.475889    -113877.9        28080   -4.0554807   -126339.49        28662   -4.4079092   -192603.21        28080   -6.8590886    -186826.6        28528   -6.5488852 
    1000    1.7930637   -964144.85            0    -964103.6    39408.538    -623156.3       113350   -5.4976294   -308190.21        56160   -5.4877174   -314966.09        57190   -5.5073629   -115339.28        28080   -4.1075243   -127697.64        28662   -4.4552943   -192850.93        28080   -6.8679105   -187268.44        28528   -6.5643733 
    2000   0.90036418   -964232.71            0   -964211.99     38928.42   -623238.58       113350   -5.4983553   -308240.61        56160   -5.4886148   -314997.97        57190   -5.5079204   -115604.73        28080   -4.1169776   -127589.59        28662   -4.4515243   -192635.88        28080    -6.860252   -187408.38        28528   -6.5692785 
    3000    0.9520652   -964249.36            0   -964227.45    38990.558   -623257.48       113350   -5.4985221   -308246.87        56160   -5.4887263   -315010.61        57190   -5.5081414   -115546.94        28080   -4.1149193   -127624.86        28662    -4.452755   -192699.94        28080   -6.8625333   -187385.74        28528   -6.5684851 
    4000   0.98433974   -964242.64            0   -964219.99    39023.702   -623250.91       113350   -5.4984641   -308243.04        56160   -5.4886582   -315007.86        57190   -5.5080934   -115524.47        28080   -4.1141191   -127633.13        28662   -4.4530433   -192718.58        28080   -6.8631972   -187374.74        28528   -6.5680993 
    5000    1.0130964   -964239.92            0   -964216.61    38949.705   -623248.02       113350   -5.4984387   -308243.08        56160   -5.4886588   -315004.95        57190   -5.5080424   -115592.65        28080   -4.1165473   -127596.68        28662   -4.4517718   -192650.43        28080   -6.8607704   -187408.26        28528   -6.5692744 
    6000   0.99170561   -964249.14            0   -964226.32    39015.389   -623257.46       113350   -5.4985219   -308250.27        56160   -5.4887868   -315007.19        57190   -5.5080817   -115531.12        28080    -4.114356   -127630.98        28662   -4.4529686   -192719.15        28080   -6.8632175   -187376.21        28528   -6.5681508 
    7000    0.9887558   -964247.97            0   -964225.22    38963.972   -623255.16       113350   -5.4985017   -308245.44        56160   -5.4887008   -315009.72        57190    -5.508126   -115564.01        28080   -4.1155273   -127613.68        28662   -4.4523648   -192681.43        28080   -6.8618744   -187396.05        28528   -6.5688462 
    8000    1.0396122   -964240.58            0   -964216.66    38999.686   -623249.56       113350   -5.4984522   -308245.14        56160   -5.4886955   -315004.42        57190   -5.5080333   -115556.58        28080   -4.1152628   -127614.86        28662   -4.4524059   -192688.56        28080   -6.8621282   -187389.57        28528   -6.5686191 
Loop time of 1922.17 on 30 procs for 8000 steps with 177984 atoms

Performance: 0.360 ns/day, 66.742 hours/ns, 4.162 timesteps/s
98.0% CPU use with 30 MPI tasks x no OpenMP threads

MPI task timing breakdown:
Section |  min time  |  avg time  |  max time  |%varavg| %total
---------------------------------------------------------------
Pair    | 1468.4     | 1570.5     | 1897.4     | 188.8 | 81.70
Neigh   | 0.177      | 0.20813    | 0.3685     |   7.2 |  0.01
Comm    | 7.4168     | 334.1      | 436.78     | 410.0 | 17.38
Output  | 7.1142     | 8.8493     | 10.65      |  36.5 |  0.46
Modify  | 3.262      | 4.1652     | 4.6413     |  17.4 |  0.22
Other   |            | 4.343      |            |       |  0.23

Nlocal:    5932.8 ave 6424 max 5572 min
Histogram: 4 0 6 6 0 9 2 0 0 3
Nghost:    6633.4 ave 7011 max 6401 min
Histogram: 4 3 2 10 1 7 0 0 0 3
Neighs:    178264 ave 205794 max 155340 min
Histogram: 4 1 1 8 5 3 5 0 0 3
FullNghs:  356528 ave 409115 max 310124 min
Histogram: 4 1 1 8 5 0 6 2 0 3

Total # of neighbors = 10695834
Ave neighs/atom = 60.0944
Neighbor list builds = 9
Dangerous builds = 0
thermo 10
run 1000
Per MPI rank memory allocation (min/avg/max) = 18.67 | 19.33 | 20.7 Mbytes
Step Temp E_pair E_mol TotEng Press c_interface_energy v_number_of_interface_atoms v_interface_energy_per_atom c_interface_1_energy v_number_of_unfrozen_interface_1_atoms v_interface_1_energy_per_atom c_interface_2_energy v_number_of_unfrozen_interface_2_atoms v_interface_2_energy_per_atom c_type_1_interface_1_energy v_number_of_type_1_interface_1_atoms v_interface_1_type_1_energy_per_atom c_type_1_interface_2_energy v_number_of_type_1_interface_2_atoms v_interface_2_type_1_energy_per_atom c_type_2_interface_1_energy v_number_of_type_2_interface_1_atoms v_interface_1_type_2_energy_per_atom c_type_2_interface_2_energy v_number_of_type_2_interface_2_atoms v_interface_2_type_2_energy_per_atom 
    8000    1.0396122   -964240.58            0   -964216.66    38999.686   -623249.56       113350   -5.4984522   -308245.14        56160   -5.4886955   -315004.42        57190   -5.5080333   -115556.58        28080   -4.1152628   -127614.86        28662   -4.4524059   -192688.56        28080   -6.8621282   -187389.57        28528   -6.5686191 
    8010    1.0432432   -964240.67            0   -964216.67    38999.783   -623249.65       113350    -5.498453   -308245.16        56160   -5.4886959   -315004.48        57190   -5.5080343   -115556.15        28080   -4.1152476    -127615.1        28662   -4.4524145   -192689.01        28080   -6.8621443   -187389.38        28528   -6.5686125 
    8020    1.0425761   -964240.69            0    -964216.7    38999.938   -623249.67       113350   -5.4984532   -308245.15        56160   -5.4886957   -315004.52        57190   -5.5080349   -115555.74        28080    -4.115233   -127615.32        28662   -4.4524222   -192689.41        28080   -6.8621584   -187389.19        28528    -6.568606 
    8030     1.041523   -964240.72            0   -964216.76    39000.199   -623249.71       113350   -5.4984535   -308245.18        56160   -5.4886962   -315004.53        57190   -5.5080352   -115555.39        28080   -4.1152206    -127615.5        28662   -4.4524285   -192689.78        28080   -6.8621717   -187389.03        28528   -6.5686002 
    8040    1.0387819   -964240.73            0   -964216.83    39000.352   -623249.74       113350   -5.4984538   -308245.21        56160   -5.4886967   -315004.53        57190   -5.5080351   -115555.11        28080   -4.1152103   -127615.66        28662   -4.4524338    -192690.1        28080   -6.8621831   -187388.87        28528   -6.5685947 
    8050    1.0344382   -964240.72            0   -964216.92    39000.209   -623249.75       113350   -5.4984539   -308245.22        56160    -5.488697   -315004.53        57190   -5.5080351   -115554.87        28080   -4.1152018   -127615.81        28662   -4.4524391   -192690.35        28080   -6.8621921   -187388.72        28528   -6.5685894 
    8060    1.0336094   -964240.81            0   -964217.03    38999.852   -623249.86       113350   -5.4984549   -308245.29        56160   -5.4886982   -315004.57        57190   -5.5080359   -115554.69        28080   -4.1151955   -127615.98        28662   -4.4524449    -192690.6        28080   -6.8622008    -187388.6        28528   -6.5685851 
    8070    1.0387843   -964241.05            0   -964217.15     38999.58   -623250.12       113350   -5.4984572   -308245.45        56160   -5.4887011   -315004.67        57190   -5.5080375   -115554.55        28080   -4.1151905   -127616.15        28662   -4.4524509    -192690.9        28080   -6.8622116   -187388.52        28528   -6.5685825 
    8080    1.0441981   -964241.31            0   -964217.29    38999.572   -623250.41       113350   -5.4984597   -308245.62        56160   -5.4887041   -315004.79        57190   -5.5080397   -115554.37        28080   -4.1151842   -127616.31        28662   -4.4524565   -192691.25        28080    -6.862224   -187388.48        28528    -6.568581 
    8090    1.0427118   -964241.44            0   -964217.45    38999.702   -623250.59       113350   -5.4984613    -308245.7        56160   -5.4887055   -315004.89        57190   -5.5080415    -115554.1        28080   -4.1151745   -127616.46        28662   -4.4524618    -192691.6        28080   -6.8622365   -187388.43        28528   -6.5685793 
    8100    1.0373041    -964241.5            0   -964217.64    38999.906   -623250.74       113350   -5.4984626   -308245.75        56160   -5.4887064   -315004.98        57190   -5.5080431   -115553.77        28080   -4.1151627   -127616.62        28662   -4.4524673   -192691.99        28080   -6.8622502   -187388.37        28528    -6.568577 
    8110    1.0365977   -964241.68            0   -964217.84    39000.102   -623250.99       113350   -5.4984649   -308245.88        56160   -5.4887087   -315005.11        57190   -5.5080453   -115553.45        28080   -4.1151515   -127616.81        28662    -4.452474   -192692.42        28080   -6.8622658    -187388.3        28528   -6.5685749 
    8120    1.0409975      -964242            0   -964218.05    39000.171   -623251.32       113350   -5.4984678   -308246.04        56160   -5.4887115   -315005.28        57190   -5.5080483   -115553.18        28080   -4.1151416   -127617.05        28662   -4.4524822   -192692.86        28080   -6.8622815   -187388.24        28528   -6.5685726 
    8130     1.043027   -964242.29            0   -964218.29    39000.155   -623251.56       113350   -5.4984699    -308246.1        56160   -5.4887126   -315005.46        57190   -5.5080515   -115552.88        28080   -4.1151312   -127617.32        28662    -4.452492   -192693.22        28080   -6.8622941   -187388.14        28528   -6.5685691 
    8140    1.0387326   -964242.44            0   -964218.55    39000.086   -623251.64       113350   -5.4984706   -308246.01        56160   -5.4887111   -315005.63        57190   -5.5080543   -115552.55        28080   -4.1151193   -127617.63        28662   -4.4525027   -192693.47        28080   -6.8623029   -187387.99        28528    -6.568564 
    8150    1.0316827   -964242.55            0   -964218.82    38999.941   -623251.64       113350   -5.4984706   -308245.88        56160   -5.4887087   -315005.77        57190   -5.5080567   -115552.21        28080   -4.1151072   -127617.95        28662   -4.4525139   -192693.67        28080   -6.8623101   -187387.81        28528   -6.5685576 
    8160    1.0275619   -964242.74            0    -964219.1    38999.838   -623251.71       113350   -5.4984712   -308245.82        56160   -5.4887076   -315005.89        57190   -5.5080589   -115551.91        28080   -4.1150964   -127618.27        28662    -4.452525   -192693.91        28080   -6.8623188   -187387.61        28528   -6.5685507 
    8170    1.0258649      -964243            0    -964219.4    38999.737   -623251.84       113350   -5.4984724   -308245.85        56160   -5.4887081   -315005.99        57190   -5.5080607   -115551.63        28080   -4.1150865   -127618.58        28662   -4.4525359   -192694.22        28080   -6.8623298   -187387.41        28528   -6.5685435 
    8180    1.0226392   -964243.23            0   -964219.71    38999.708      -623252       113350   -5.4984737   -308245.91        56160   -5.4887092   -315006.09        57190   -5.5080624   -115551.35        28080   -4.1150764   -127618.89        28662   -4.4525465   -192694.56        28080    -6.862342    -187387.2        28528   -6.5685362 
    8190    1.0178552   -964243.44            0   -964220.02    38999.783   -623252.17       113350   -5.4984753   -308245.98        56160   -5.4887105   -315006.19        57190   -5.5080641   -115551.06        28080   -4.1150661   -127619.17        28662   -4.4525562   -192694.93        28080   -6.8623549   -187387.02        28528   -6.5685299 
    8200    1.0138938   -964243.66            0   -964220.34    38999.844   -623252.39       113350   -5.4984772   -308246.11        56160   -5.4887127   -315006.29        57190   -5.5080658    -115550.8        28080   -4.1150571    -127619.4        28662   -4.4525644    -192695.3        28080   -6.8623683   -187386.89        28528   -6.5685251 
    8210    1.0122138   -964243.95            0   -964220.66    38999.898   -623252.68       113350   -5.4984798   -308246.31        56160   -5.4887164   -315006.37        57190   -5.5080674   -115550.62        28080   -4.1150505   -127619.57        28662   -4.4525703   -192695.69        28080   -6.8623822    -187386.8        28528   -6.5685222 
    8220    1.0116708   -964244.26            0   -964220.99    38999.876   -623253.02       113350   -5.4984827   -308246.57        56160   -5.4887209   -315006.45        57190   -5.5080688   -115550.48        28080   -4.1150457   -127619.68        28662   -4.4525742   -192696.08        28080   -6.8623962   -187386.77        28528   -6.5685211 
    8230    1.0096891   -964244.54            0   -964221.31    38999.683   -623253.33       113350   -5.4984855    -308246.8        56160    -5.488725   -315006.53        57190   -5.5080701   -115550.36        28080   -4.1150413   -127619.76        28662   -4.4525768   -192696.44        28080   -6.8624088   -187386.77        28528   -6.5685213 
    8240    1.0065752    -964244.8            0   -964221.64    38999.336   -623253.59       113350   -5.4984878   -308246.98        56160   -5.4887283   -315006.61        57190   -5.5080716   -115550.24        28080   -4.1150372   -127619.81        28662   -4.4525787   -192696.74        28080   -6.8624194    -187386.8        28528   -6.5685223 
    8250    1.0044524   -964245.08            0   -964221.97    38998.961   -623253.87       113350   -5.4984903   -308247.18        56160   -5.4887318   -315006.69        57190    -5.508073   -115550.16        28080   -4.1150342   -127619.85        28662   -4.4525799   -192697.02        28080   -6.8624294   -187386.85        28528   -6.5685238 
    8260    1.0029212   -964245.38            0    -964222.3    38998.679   -623254.19       113350   -5.4984931   -308247.45        56160   -5.4887366   -315006.74        57190   -5.5080738   -115550.13        28080   -4.1150331   -127619.85        28662   -4.4525801   -192697.32        28080     -6.86244   -187386.89        28528   -6.5685254 
    8270    1.0010137   -964245.66            0   -964222.63    38998.671   -623254.52       113350    -5.498496   -308247.77        56160   -5.4887423   -315006.75        57190    -5.508074   -115550.14        28080   -4.1150334   -127619.82        28662    -4.452579   -192697.63        28080   -6.8624512   -187386.94        28528   -6.5685269 
    8280   0.99795364   -964245.92            0   -964222.96     38998.99   -623254.82       113350   -5.4984986   -308248.07        56160   -5.4887477   -315006.75        57190   -5.5080739   -115550.15        28080   -4.1150337   -127619.76        28662   -4.4525769   -192697.92        28080   -6.8624617   -187386.99        28528   -6.5685287 
    8290   0.99247542   -964246.11            0   -964223.28     38999.48   -623255.02       113350   -5.4985004   -308248.29        56160   -5.4887517   -315006.73        57190   -5.5080736   -115550.13        28080   -4.1150331    -127619.7        28662   -4.4525748   -192698.16        28080   -6.8624703   -187387.03        28528   -6.5685302 
    8300    0.9856645   -964246.27            0    -964223.6    38999.896   -623255.16       113350   -5.4985017   -308248.44        56160   -5.4887543   -315006.72        57190   -5.5080734   -115550.07        28080   -4.1150311   -127619.67        28662   -4.4525739   -192698.37        28080   -6.8624775   -187387.05        28528   -6.5685308 
    8310   0.98085189   -964246.46            0    -964223.9    38999.984   -623255.31       113350    -5.498503   -308248.58        56160   -5.4887568   -315006.73        57190   -5.5080737      -115550        28080   -4.1150284   -127619.71        28662   -4.4525751   -192698.58        28080   -6.8624852   -187387.03        28528   -6.5685301 
    8320   0.97994965   -964246.74            0   -964224.19    38999.611   -623255.53       113350   -5.4985049   -308248.75        56160   -5.4887598   -315006.78        57190   -5.5080745   -115549.91        28080   -4.1150252   -127619.82        28662   -4.4525789   -192698.84        28080   -6.8624943   -187386.96        28528   -6.5685279 
    8330   0.98204993   -964247.07            0   -964224.48    38998.867   -623255.79       113350   -5.4985072   -308248.92        56160   -5.4887629   -315006.87        57190    -5.508076    -115549.8        28080   -4.1150213      -127620        28662   -4.4525853   -192699.13        28080   -6.8625045   -187386.87        28528   -6.5685245 
    8340   0.98362358   -964247.38            0   -964224.75    38998.038   -623256.03       113350   -5.4985093   -308249.06        56160   -5.4887653   -315006.97        57190   -5.5080778   -115549.65        28080   -4.1150159   -127620.23        28662   -4.4525934   -192699.42        28080   -6.8625148   -187386.74        28528   -6.5685199 
    8350   0.98257771   -964247.62            0   -964225.02    38997.408   -623256.21       113350   -5.4985109   -308249.16        56160   -5.4887671   -315007.05        57190   -5.5080792   -115549.45        28080    -4.115009   -127620.48        28662    -4.452602   -192699.71        28080   -6.8625252   -187386.57        28528   -6.5685142 
    8360   0.97969478   -964247.81            0   -964225.27      38997.1   -623256.36       113350   -5.4985122   -308249.24        56160   -5.4887685   -315007.11        57190   -5.5080803   -115549.24        28080   -4.1150016   -127620.72        28662   -4.4526105      -192700        28080   -6.8625355   -187386.39        28528   -6.5685079 
    8370   0.97722702      -964248            0   -964225.52    38997.083   -623256.49       113350   -5.4985134   -308249.32        56160   -5.4887699   -315007.17        57190   -5.5080813   -115549.05        28080   -4.1149946   -127620.96        28662   -4.4526187   -192700.27        28080   -6.8625453   -187386.21        28528   -6.5685016 
    8380   0.97648655   -964248.22            0   -964225.75    38997.242   -623256.64       113350   -5.4985146   -308249.38        56160   -5.4887711   -315007.25        57190   -5.5080827   -115548.87        28080   -4.1149882   -127621.18        28662   -4.4526265   -192700.52        28080    -6.862554   -187386.07        28528   -6.5684966 
    8390   0.97544823   -964248.41            0   -964225.97    38997.576   -623256.76       113350   -5.4985158    -308249.4        56160   -5.4887713   -315007.37        57190   -5.5080848   -115548.68        28080   -4.1149816   -127621.38        28662   -4.4526336   -192700.71        28080    -6.862561   -187385.98        28528   -6.5684935 
    8400   0.97116879   -964248.53            0   -964226.18    38997.962   -623256.82       113350   -5.4985163   -308249.34        56160   -5.4887703   -315007.48        57190   -5.5080868   -115548.48        28080   -4.1149745   -127621.55        28662   -4.4526395   -192700.85        28080    -6.862566   -187385.93        28528   -6.5684916 
    8410   0.96564442   -964248.59            0   -964226.38    38998.173   -623256.85       113350   -5.4985166   -308249.28        56160   -5.4887693   -315007.57        57190   -5.5080883   -115548.31        28080   -4.1149684   -127621.68        28662   -4.4526438   -192700.97        28080   -6.8625702   -187385.89        28528   -6.5684904 
    8420   0.96363805   -964248.73            0   -964226.56    38998.106   -623256.97       113350   -5.4985176   -308249.36        56160   -5.4887706   -315007.61        57190    -5.508089   -115548.23        28080   -4.1149654   -127621.75        28662   -4.4526463   -192701.13        28080   -6.8625758   -187385.87        28528   -6.5684894 
    8430   0.96648459   -964248.95            0   -964226.72     38997.84   -623257.19       113350   -5.4985196   -308249.57        56160   -5.4887744   -315007.62        57190   -5.5080892   -115548.22        28080   -4.1149652   -127621.78        28662   -4.4526474   -192701.35        28080   -6.8625836   -187385.84        28528   -6.5684886 
    8440   0.97016234   -964249.19            0   -964226.87    38997.538   -623257.43       113350   -5.4985217   -308249.81        56160   -5.4887787   -315007.62        57190   -5.5080892   -115548.23        28080   -4.1149653   -127621.79        28662   -4.4526479   -192701.59        28080   -6.8625921   -187385.83        28528    -6.568488 
    8450   0.97101688   -964249.34            0      -964227    38997.335    -623257.6       113350   -5.4985231   -308249.97        56160   -5.4887816   -315007.62        57190   -5.5080893   -115548.18        28080   -4.1149637   -127621.81        28662   -4.4526483   -192701.79        28080   -6.8625994   -187385.82        28528   -6.5684877 
    8460   0.97108012   -964249.47            0   -964227.12    38997.207   -623257.73       113350   -5.4985243   -308250.08        56160   -5.4887835   -315007.65        57190   -5.5080897   -115548.11        28080   -4.1149613   -127621.83        28662   -4.4526491   -192701.97        28080   -6.8626058   -187385.82        28528   -6.5684878 
    8470   0.97326821   -964249.63            0   -964227.23    38997.031    -623257.9       113350   -5.4985258   -308250.21        56160   -5.4887858   -315007.69        57190   -5.5080905   -115548.07        28080   -4.1149597   -127621.87        28662   -4.4526504   -192702.14        28080   -6.8626118   -187385.83        28528   -6.5684881 
    8480   0.97572903   -964249.78            0   -964227.33     38996.61   -623258.05       113350   -5.4985271   -308250.33        56160   -5.4887879   -315007.72        57190    -5.508091   -115548.06        28080   -4.1149594   -127621.92        28662   -4.4526523   -192702.26        28080   -6.8626163    -187385.8        28528   -6.5684873 
    8490   0.97654037   -964249.88            0   -964227.42     38995.92   -623258.13       113350   -5.4985278    -308250.4        56160   -5.4887892   -315007.73        57190    -5.508091   -115548.07        28080   -4.1149598   -127621.99        28662   -4.4526547   -192702.33        28080   -6.8626186   -187385.74        28528   -6.5684849 
    8500   0.97633109   -964249.96            0   -964227.49    38995.189   -623258.17       113350   -5.4985282   -308250.46        56160   -5.4887902   -315007.72        57190   -5.5080908   -115548.08        28080   -4.1149602   -127622.07        28662   -4.4526574   -192702.38        28080   -6.8626203   -187385.65        28528   -6.5684818 
    8510   0.97554685      -964250            0   -964227.56    38994.676   -623258.22       113350   -5.4985286   -308250.52        56160   -5.4887912    -315007.7        57190   -5.5080906   -115548.07        28080   -4.1149598   -127622.15        28662   -4.4526602   -192702.44        28080   -6.8626227   -187385.56        28528   -6.5684786 
    8520   0.97450099   -964250.03            0   -964227.61    38994.528   -623258.26       113350    -5.498529   -308250.57        56160   -5.4887922   -315007.69        57190   -5.5080905   -115548.03        28080   -4.1149584   -127622.21        28662   -4.4526624   -192702.54        28080    -6.862626   -187385.48        28528    -6.568476 
    8530   0.97454564   -964250.08            0   -964227.66      38994.7   -623258.31       113350   -5.4985294   -308250.63        56160   -5.4887933   -315007.68        57190   -5.5080902   -115547.98        28080   -4.1149565   -127622.25        28662   -4.4526638   -192702.65        28080     -6.86263   -187385.43        28528   -6.5684741 
    8540   0.97778314   -964250.18            0   -964227.69    38995.054    -623258.4       113350   -5.4985302   -308250.73        56160   -5.4887951   -315007.67        57190     -5.50809   -115547.95        28080   -4.1149553   -127622.28        28662   -4.4526649   -192702.79        28080   -6.8626349   -187385.39        28528   -6.5684726 
    8550   0.98374087   -964250.34            0   -964227.71    38995.347   -623258.55       113350   -5.4985315   -308250.86        56160   -5.4887974   -315007.69        57190   -5.5080904   -115547.92        28080   -4.1149545   -127622.33        28662   -4.4526666   -192702.94        28080   -6.8626402   -187385.36        28528   -6.5684717 
    8560   0.98772066   -964250.45            0   -964227.72    38995.477   -623258.66       113350   -5.4985325   -308250.91        56160   -5.4887982   -315007.75        57190   -5.5080915   -115547.87        28080   -4.1149527   -127622.42        28662   -4.4526697   -192703.03        28080   -6.8626437   -187385.33        28528   -6.5684707 
    8570   0.98818772   -964250.47            0   -964227.73    38995.422   -623258.68       113350   -5.4985327   -308250.84        56160    -5.488797   -315007.84        57190    -5.508093   -115547.78        28080   -4.1149496   -127622.54        28662   -4.4526741   -192703.05        28080   -6.8626443    -187385.3        28528   -6.5684694 
    8580   0.98921195   -964250.49            0   -964227.74    38995.315   -623258.69       113350   -5.4985327   -308250.76        56160   -5.4887956   -315007.93        57190   -5.5080946    -115547.7        28080   -4.1149466   -127622.68        28662   -4.4526789   -192703.06        28080   -6.8626445   -187385.25        28528   -6.5684677 
    8590    0.9913951   -964250.54            0   -964227.73    38995.273   -623258.72       113350    -5.498533   -308250.74        56160   -5.4887953   -315007.98        57190   -5.5080954   -115547.64        28080   -4.1149445   -127622.81        28662   -4.4526833    -192703.1        28080   -6.8626461   -187385.17        28528    -6.568465 
    8600   0.99054831   -964250.52            0   -964227.73    38995.329   -623258.69       113350   -5.4985328   -308250.73        56160    -5.488795   -315007.97        57190   -5.5080952   -115547.57        28080   -4.1149419   -127622.91        28662   -4.4526869   -192703.16        28080   -6.8626481   -187385.06        28528    -6.568461 
    8610   0.98556988   -964250.39            0   -964227.72    38995.594   -623258.56       113350   -5.4985316   -308250.64        56160   -5.4887934   -315007.92        57190   -5.5080945   -115547.44        28080   -4.1149373      -127623        28662     -4.45269    -192703.2        28080   -6.8626495   -187384.92        28528   -6.5684564 
    8620   0.98126505   -964250.28            0    -964227.7    38996.178   -623258.42       113350   -5.4985304   -308250.51        56160   -5.4887912   -315007.91        57190   -5.5080942   -115547.27        28080   -4.1149312   -127623.09        28662   -4.4526932   -192703.25        28080   -6.8626512   -187384.82        28528   -6.5684526 
    8630   0.98168992   -964250.26            0   -964227.68    38996.975   -623258.38       113350     -5.49853   -308250.43        56160   -5.4887898   -315007.94        57190   -5.5080949   -115547.09        28080    -4.114925   -127623.19        28662   -4.4526965   -192703.34        28080   -6.8626546   -187384.76        28528   -6.5684506 
    8640   0.98476562    -964250.3            0   -964227.65    38997.671    -623258.4       113350   -5.4985303    -308250.4        56160   -5.4887892      -315008        57190   -5.5080959   -115546.95        28080   -4.1149199   -127623.27        28662   -4.4526993   -192703.45        28080   -6.8626585   -187384.74        28528   -6.5684499 
    8650   0.98757546   -964250.33            0   -964227.61    38998.056   -623258.43       113350   -5.4985305   -308250.39        56160    -5.488789   -315008.04        57190   -5.5080965   -115546.85        28080   -4.1149165    -127623.3        28662   -4.4527005   -192703.53        28080   -6.8626615   -187384.74        28528     -6.56845 
    8660    0.9904524   -964250.35            0   -964227.56    38998.192   -623258.44       113350   -5.4985306    -308250.4        56160   -5.4887892   -315008.04        57190   -5.5080965   -115546.81        28080   -4.1149149   -127623.27        28662   -4.4526995   -192703.59        28080   -6.8626636   -187384.77        28528   -6.5684509 
    8670   0.99219078   -964250.34            0   -964227.51    38998.167   -623258.41       113350   -5.4985303   -308250.42        56160   -5.4887896   -315007.99        57190   -5.5080956    -115546.8        28080   -4.1149145   -127623.19        28662   -4.4526967   -192703.63        28080   -6.8626647    -187384.8        28528    -6.568452 
    8680   0.99043062   -964250.24            0   -964227.46    38997.974    -623258.3       113350   -5.4985293   -308250.41        56160   -5.4887894   -315007.89        57190   -5.5080939   -115546.78        28080   -4.1149139   -127623.09        28662    -4.452693   -192703.63        28080   -6.8626649    -187384.8        28528   -6.5684521 
    8690    0.9874268   -964250.11            0    -964227.4    38997.615   -623258.16       113350   -5.4985281   -308250.39        56160    -5.488789   -315007.77        57190   -5.5080918   -115546.77        28080   -4.1149134   -127622.99        28662   -4.4526896   -192703.62        28080   -6.8626646   -187384.78        28528   -6.5684514 
    8700   0.98778299   -964250.06            0   -964227.33    38997.185   -623258.07       113350   -5.4985273    -308250.4        56160   -5.4887892   -315007.67        57190     -5.50809   -115546.78        28080   -4.1149137   -127622.91        28662   -4.4526869   -192703.63        28080   -6.8626647   -187384.75        28528   -6.5684505 
    8710   0.99135455   -964250.07            0   -964227.26    38996.819   -623258.01       113350   -5.4985268   -308250.42        56160   -5.4887895   -315007.59        57190   -5.5080887    -115546.8        28080   -4.1149145   -127622.86        28662   -4.4526852   -192703.62        28080   -6.8626645   -187384.73        28528   -6.5684496 
    8720   0.99287336   -964250.03            0   -964227.19    38996.504    -623257.9       113350   -5.4985258   -308250.37        56160   -5.4887886   -315007.53        57190   -5.5080876    -115546.8        28080   -4.1149144   -127622.83        28662   -4.4526841   -192703.57        28080   -6.8626627    -187384.7        28528   -6.5684484 
    8730   0.99019943    -964249.9            0   -964227.11    38996.145   -623257.69       113350    -5.498524   -308250.24        56160   -5.4887863   -315007.45        57190   -5.5080862   -115546.77        28080   -4.1149133   -127622.82        28662   -4.4526836   -192703.48        28080   -6.8626594   -187384.63        28528   -6.5684463 
    8740   0.98793018   -964249.76            0   -964227.03    38995.678   -623257.51       113350   -5.4985224   -308250.14        56160   -5.4887845   -315007.37        57190   -5.5080849   -115546.76        28080   -4.1149131   -127622.81        28662   -4.4526834   -192703.38        28080    -6.862656   -187384.56        28528   -6.5684437 
    8750   0.98867759   -964249.69            0   -964226.95    38995.118   -623257.41       113350   -5.4985215    -308250.1        56160   -5.4887838   -315007.31        57190   -5.5080838    -115546.8        28080   -4.1149147   -127622.81        28662   -4.4526833   -192703.29        28080   -6.8626529   -187384.51        28528   -6.5684417 
    8760    0.9882756   -964249.59            0   -964226.86     38994.53   -623257.29       113350   -5.4985204   -308250.04        56160   -5.4887827   -315007.25        57190   -5.5080828   -115546.87        28080    -4.114917    -127622.8        28662    -4.452683   -192703.17        28080   -6.8626484   -187384.45        28528   -6.5684399 
    8770   0.98410365    -964249.4            0   -964226.76     38994.02   -623257.11       113350   -5.4985188   -308249.92        56160   -5.4887806   -315007.19        57190   -5.5080816   -115546.92        28080   -4.1149187   -127622.79        28662   -4.4526827      -192703        28080   -6.8626424    -187384.4        28528   -6.5684379 
    8780   0.98099452   -964249.22            0   -964226.66    38993.697   -623256.97       113350   -5.4985176   -308249.83        56160    -5.488779   -315007.14        57190   -5.5080808   -115546.97        28080   -4.1149206   -127622.79        28662   -4.4526827   -192702.86        28080   -6.8626374   -187384.35        28528   -6.5684362 
    8790   0.98355179   -964249.17            0   -964226.54    38993.638   -623256.96       113350   -5.4985175   -308249.83        56160    -5.488779   -315007.13        57190   -5.5080806   -115547.05        28080   -4.1149234    -127622.8        28662   -4.4526831   -192702.78        28080   -6.8626345   -187384.32        28528   -6.5684354 
    8800   0.98735956   -964249.14            0   -964226.43    38993.778   -623256.95       113350   -5.4985175   -308249.82        56160   -5.4887789   -315007.13        57190   -5.5080806   -115547.13        28080   -4.1149263   -127622.81        28662   -4.4526835   -192702.69        28080   -6.8626315   -187384.32        28528   -6.5684351 
    8810   0.98621345   -964248.99            0    -964226.3    38994.014   -623256.83       113350   -5.4985164   -308249.71        56160    -5.488777   -315007.12        57190   -5.5080804   -115547.17        28080   -4.1149276   -127622.81        28662   -4.4526833   -192702.55        28080   -6.8626264   -187384.31        28528   -6.5684349 
    8820   0.98173472   -964248.75            0   -964226.17    38994.347   -623256.65       113350   -5.4985148   -308249.55        56160   -5.4887741   -315007.09        57190     -5.50808   -115547.17        28080   -4.1149276   -127622.78        28662   -4.4526824   -192702.39        28080   -6.8626206   -187384.31        28528   -6.5684349 
    8830   0.97863784   -964248.54            0   -964226.03    38994.652    -623256.5       113350   -5.4985135   -308249.43        56160   -5.4887719   -315007.07        57190   -5.5080796   -115547.17        28080   -4.1149276   -127622.75        28662   -4.4526812   -192702.26        28080   -6.8626161   -187384.32        28528   -6.5684353 
    8840   0.97868883    -964248.4            0   -964225.88    38994.881   -623256.42       113350   -5.4985128   -308249.35        56160   -5.4887705   -315007.08        57190   -5.5080797   -115547.18        28080   -4.1149281   -127622.72        28662   -4.4526803   -192702.17        28080   -6.8626129   -187384.35        28528   -6.5684364 
    8850    0.9808207   -964248.29            0   -964225.73    38995.043    -623256.4       113350   -5.4985126   -308249.27        56160   -5.4887691   -315007.13        57190   -5.5080806   -115547.19        28080   -4.1149283   -127622.72        28662   -4.4526803   -192702.08        28080   -6.8626098   -187384.41        28528   -6.5684382 
    8860   0.98232055   -964248.16            0   -964225.56    38995.124   -623256.36       113350   -5.4985123   -308249.14        56160   -5.4887668   -315007.22        57190   -5.5080822   -115547.18        28080   -4.1149282   -127622.74        28662    -4.452681   -192701.96        28080   -6.8626054   -187384.48        28528   -6.5684408 
    8870   0.98171564   -964247.97            0   -964225.39    38995.074   -623256.27       113350   -5.4985114   -308248.95        56160   -5.4887633   -315007.32        57190    -5.508084   -115547.19        28080   -4.1149284   -127622.76        28662   -4.4526816   -192701.76        28080   -6.8625982   -187384.56        28528   -6.5684437 
    8880   0.98082373   -964247.77            0    -964225.2     38994.96   -623256.13       113350   -5.4985102   -308248.73        56160   -5.4887595   -315007.39        57190   -5.5080852   -115547.24        28080   -4.1149303   -127622.75        28662   -4.4526814   -192701.49        28080   -6.8625887   -187384.64        28528   -6.5684465 
    8890   0.98103142   -964247.58            0   -964225.01    38994.761   -623255.95       113350   -5.4985086   -308248.54        56160   -5.4887561   -315007.41        57190   -5.5080854   -115547.34        28080   -4.1149339    -127622.7        28662   -4.4526796    -192701.2        28080   -6.8625783    -187384.7        28528   -6.5684486 
    8900   0.98102538   -964247.39            0   -964224.82    38994.448   -623255.71       113350   -5.4985065   -308248.35        56160   -5.4887527   -315007.36        57190   -5.5080847   -115547.45        28080   -4.1149377   -127622.62        28662   -4.4526766    -192700.9        28080   -6.8625677   -187384.74        28528   -6.5684501 
    8910   0.98003529   -964247.16            0   -964224.61    38994.004   -623255.42       113350   -5.4985039   -308248.13        56160   -5.4887487   -315007.29        57190   -5.5080834   -115547.52        28080   -4.1149402   -127622.51        28662    -4.452673   -192700.61        28080   -6.8625572   -187384.78        28528   -6.5684512 
    8920   0.97990906   -964246.94            0    -964224.4    38993.455   -623255.11       113350   -5.4985012    -308247.9        56160   -5.4887447   -315007.21        57190    -5.508082   -115547.56        28080   -4.1149417   -127622.41        28662   -4.4526692   -192700.34        28080   -6.8625477   -187384.81        28528   -6.5684523 
    8930   0.98208727   -964246.77            0   -964224.17    38992.835   -623254.84       113350   -5.4984988   -308247.73        56160   -5.4887416   -315007.11        57190   -5.5080803    -115547.6        28080   -4.1149431   -127622.29        28662   -4.4526651   -192700.13        28080   -6.8625401   -187384.83        28528   -6.5684529 
    8940    0.9853588   -964246.61            0   -964223.94    38992.218   -623254.58       113350   -5.4984965   -308247.59        56160   -5.4887391   -315006.99        57190   -5.5080781   -115547.66        28080   -4.1149451   -127622.16        28662   -4.4526605   -192699.93        28080   -6.8625332   -187384.83        28528   -6.5684532 
    8950   0.98773686   -964246.43            0   -964223.71    38991.644   -623254.29       113350   -5.4984939   -308247.43        56160   -5.4887363   -315006.86        57190   -5.5080758   -115547.74        28080   -4.1149479   -127622.01        28662   -4.4526555   -192699.69        28080   -6.8625247   -187384.84        28528   -6.5684536 
    8960   0.99004586   -964246.24            0   -964223.46    38991.186   -623253.99       113350   -5.4984913   -308247.24        56160   -5.4887329   -315006.75        57190    -5.508074   -115547.85        28080   -4.1149518   -127621.87        28662   -4.4526505   -192699.39        28080    -6.862514   -187384.88        28528    -6.568455 
    8970   0.99363495   -964246.08            0   -964223.22    38990.931   -623253.73       113350   -5.4984891   -308247.04        56160   -5.4887294   -315006.69        57190    -5.508073   -115547.98        28080   -4.1149565   -127621.73        28662   -4.4526457   -192699.06        28080   -6.8625023   -187384.96        28528   -6.5684577 
    8980   0.99611666   -964245.88            0   -964222.97    38990.882   -623253.47       113350   -5.4984868   -308246.82        56160   -5.4887254   -315006.65        57190   -5.5080723   -115548.09        28080   -4.1149605    -127621.6        28662   -4.4526411   -192698.73        28080   -6.8624903   -187385.06        28528    -6.568461 
    8990   0.99553874   -964245.62            0   -964222.72    38990.953   -623253.17       113350   -5.4984841   -308246.58        56160   -5.4887211   -315006.59        57190   -5.5080712   -115548.18        28080   -4.1149636   -127621.47        28662   -4.4526364    -192698.4        28080   -6.8624786   -187385.13        28528   -6.5684635 
    9000   0.99598533   -964245.38            0   -964222.46    38991.104   -623252.91       113350   -5.4984818   -308246.41        56160   -5.4887181    -315006.5        57190   -5.5080696   -115548.28        28080   -4.1149672   -127621.32        28662   -4.4526314   -192698.13        28080   -6.8624691   -187385.18        28528   -6.5684654 
Loop time of 241.423 on 30 procs for 1000 steps with 177984 atoms

Performance: 0.358 ns/day, 67.062 hours/ns, 4.142 timesteps/s
98.0% CPU use with 30 MPI tasks x no OpenMP threads

MPI task timing breakdown:
Section |  min time  |  avg time  |  max time  |%varavg| %total
---------------------------------------------------------------
Pair    | 184.04     | 196.72     | 237.69     |  66.7 | 81.48
Neigh   | 0          | 0          | 0          |   0.0 |  0.00
Comm    | 1.0559     | 41.95      | 54.692     | 144.5 | 17.38
Output  | 1.6271     | 1.6274     | 1.6276     |   0.0 |  0.67
Modify  | 0.46327    | 0.59959    | 0.7872     |   7.6 |  0.25
Other   |            | 0.525      |            |       |  0.22

Nlocal:    5932.8 ave 6422 max 5571 min
Histogram: 4 0 6 6 0 9 2 0 0 3
Nghost:    6627.7 ave 7019 max 6403 min
Histogram: 7 0 4 9 0 7 0 0 0 3
Neighs:    178683 ave 206467 max 155541 min
Histogram: 4 1 1 9 4 2 6 0 0 3
FullNghs:  357365 ave 412174 max 310509 min
Histogram: 4 1 1 8 5 0 8 0 0 3

Total # of neighbors = 10720956
Ave neighs/atom = 60.2355
Neighbor list builds = 0
Dangerous builds = 0
thermo 1000
dump_modify MiDump every 1000
run 42000
Per MPI rank memory allocation (min/avg/max) = 18.67 | 19.33 | 20.7 Mbytes
Step Temp E_pair E_mol TotEng Press c_interface_energy v_number_of_interface_atoms v_interface_energy_per_atom c_interface_1_energy v_number_of_unfrozen_interface_1_atoms v_interface_1_energy_per_atom c_interface_2_energy v_number_of_unfrozen_interface_2_atoms v_interface_2_energy_per_atom c_type_1_interface_1_energy v_number_of_type_1_interface_1_atoms v_interface_1_type_1_energy_per_atom c_type_1_interface_2_energy v_number_of_type_1_interface_2_atoms v_interface_2_type_1_energy_per_atom c_type_2_interface_1_energy v_number_of_type_2_interface_1_atoms v_interface_1_type_2_energy_per_atom c_type_2_interface_2_energy v_number_of_type_2_interface_2_atoms v_interface_2_type_2_energy_per_atom 
    9000   0.99598533   -964245.38            0   -964222.46    38991.104   -623252.91       113350   -5.4984818   -308246.41        56160   -5.4887181    -315006.5        57190   -5.5080696   -115548.28        28080   -4.1149672   -127621.32        28662   -4.4526314   -192698.13        28080   -6.8624691   -187385.18        28528   -6.5684654 
   10000   0.96564767   -964250.85            0   -964228.64    38976.334   -623258.86       113350   -5.4985342   -308247.42        56160   -5.4887362   -315011.43        57190   -5.5081558   -115560.16        28080   -4.1153903   -127616.89        28662   -4.4524768   -192687.27        28080   -6.8620821   -187394.54        28528   -6.5687936 
   11000   0.97979838   -964247.96            0   -964225.42    38988.256   -623256.06       113350   -5.4985095   -308247.61        56160   -5.4887394   -315008.45        57190   -5.5081037   -115554.71        28080   -4.1151963   -127618.17        28662   -4.4525215    -192692.9        28080   -6.8622826   -187390.28        28528   -6.5686441 
   12000    1.0342567   -964243.27            0   -964219.48    38995.641   -623251.49       113350   -5.4984693   -308244.92        56160   -5.4886916   -315006.57        57190   -5.5080708   -115552.41        28080   -4.1151144   -127617.42        28662   -4.4524952   -192692.51        28080   -6.8622688   -187389.15        28528   -6.5686045 
   13000    1.0015061   -964246.82            0   -964223.78    38994.857   -623255.06       113350   -5.4985007   -308246.96        56160   -5.4887279    -315008.1        57190   -5.5080976   -115554.39        28080   -4.1151848   -127617.52        28662   -4.4524986   -192692.57        28080   -6.8622711   -187390.58        28528   -6.5686548 
   14000   0.99264355   -964249.08            0   -964226.24     38980.02   -623256.66       113350   -5.4985148   -308249.69        56160   -5.4887765   -315006.97        57190   -5.5080778   -115562.09        28080    -4.115459   -127614.78        28662   -4.4524033    -192687.6        28080    -6.862094   -187392.18        28528   -6.5687108 
   15000   0.98586686   -964248.67            0   -964225.99    39006.315   -623257.09       113350   -5.4985186   -308248.28        56160   -5.4887515    -315008.8        57190   -5.5081098   -115541.98        28080   -4.1147429   -127624.45        28662   -4.4527405    -192706.3        28080   -6.8627601   -187384.35        28528   -6.5684364 
   16000    1.0088234    -964247.2            0   -964223.99    38967.935   -623254.91       113350   -5.4984995    -308244.4        56160   -5.4886824   -315010.51        57190   -5.5081397    -115570.7        28080   -4.1157656    -127610.5        28662    -4.452254    -192673.7        28080   -6.8615991   -187400.01        28528   -6.5689852 
   17000     1.009055    -964245.7            0   -964222.49    39014.146   -623254.01       113350   -5.4984915   -308249.87        56160   -5.4887797   -315004.14        57190   -5.5080284   -115542.49        28080   -4.1147611   -127622.49        28662   -4.4526723   -192707.38        28080   -6.8627983   -187381.65        28528   -6.5683417 
   18000   0.98697929   -964248.32            0   -964225.62    38982.157   -623256.28       113350   -5.4985115   -308245.75        56160   -5.4887064   -315010.53        57190     -5.50814   -115558.01        28080   -4.1153136   -127616.43        28662   -4.4524606   -192687.75        28080   -6.8620992    -187394.1        28528   -6.5687781 
   19000   0.97344475   -964250.43            0   -964228.04    38967.998   -623258.99       113350   -5.4985354   -308248.72        56160   -5.4887592   -315010.27        57190   -5.5081355   -115567.56        28080   -4.1156539   -127613.65        28662   -4.4523636   -192681.16        28080   -6.8618646   -187396.62        28528   -6.5688665 
   20000   0.99476519   -964248.07            0   -964225.18    39025.855   -623256.65       113350   -5.4985148    -308249.9        56160   -5.4887803   -315006.75        57190   -5.5080739   -115531.42        28080   -4.1143669   -127629.14        28662    -4.452904   -192718.48        28080   -6.8631937   -187377.61        28528   -6.5682001 
   21000    1.0204802   -964246.29            0   -964222.81    38955.806   -623253.66       113350   -5.4984884   -308246.26        56160   -5.4887155   -315007.39        57190   -5.5080852    -115582.9        28080   -4.1162001   -127603.38        28662   -4.4520055   -192663.36        28080   -6.8612309   -187404.01        28528   -6.5691255 
   22000   0.99541603   -964247.58            0   -964224.68      39021.1   -623256.52       113350   -5.4985137   -308246.03        56160   -5.4887114   -315010.49        57190   -5.5081394    -115532.3        28080    -4.114398    -127630.3        28662   -4.4529448   -192713.73        28080   -6.8630247   -187380.19        28528   -6.5682904 
   23000   0.99605303   -964247.79            0   -964224.87     38974.52   -623254.95       113350   -5.4984998   -308250.73        56160   -5.4887951   -315004.21        57190   -5.5080296   -115567.22        28080   -4.1156417   -127610.05        28662    -4.452238   -192683.52        28080   -6.8619486   -187394.17        28528   -6.5687805 
   24000    1.0155681   -964246.77            0   -964223.41     38993.22   -623255.12       113350   -5.4985012   -308243.88        56160   -5.4886731   -315011.23        57190   -5.5081524   -115554.79        28080   -4.1151991   -127618.24        28662   -4.4525239   -192689.09        28080   -6.8621472   -187392.99        28528   -6.5687392 
   25000    1.0091879   -964248.13            0   -964224.91    38998.015   -623255.95       113350   -5.4985086   -308249.92        56160   -5.4887807   -315006.02        57190   -5.5080613   -115547.33        28080   -4.1149334   -127621.06        28662   -4.4526222   -192702.59        28080   -6.8626279   -187384.97        28528   -6.5684579 
   26000   0.98895095   -964250.56            0   -964227.81    38971.476   -623258.82       113350   -5.4985339   -308248.12        56160   -5.4887485    -315010.7        57190   -5.5081431   -115567.53        28080   -4.1156527   -127612.79        28662   -4.4523338   -192680.59        28080   -6.8618443   -187397.91        28528   -6.5689117 
   27000    1.0013351   -964250.02            0   -964226.99    39007.214   -623258.18       113350   -5.4985283   -308249.44        56160   -5.4887721   -315008.74        57190   -5.5081087   -115545.56        28080   -4.1148702   -127622.02        28662   -4.4526557   -192703.89        28080    -6.862674   -187386.72        28528   -6.5685193 
   28000   0.99254122   -964250.27            0   -964227.44    38979.944   -623258.26       113350    -5.498529   -308248.01        56160   -5.4887466   -315010.25        57190   -5.5081352   -115559.69        28080   -4.1153737   -127616.63        28662   -4.4524676   -192688.31        28080   -6.8621194   -187393.63        28528   -6.5687615 
   29000    1.0016786   -964249.86            0   -964226.81     38990.65   -623258.56       113350   -5.4985316   -308251.46        56160    -5.488808    -315007.1        57190   -5.5080801   -115559.93        28080   -4.1153821   -127615.27        28662   -4.4524204   -192691.53        28080   -6.8622339   -187391.83        28528   -6.5686984 
   30000    1.0047414    -964247.3            0   -964224.19    38993.904   -623255.01       113350   -5.4985003   -308245.23        56160   -5.4886971   -315009.78        57190    -5.508127   -115548.43        28080   -4.1149727   -127621.73        28662   -4.4526457    -192696.8        28080   -6.8624216   -187388.05        28528    -6.568566 
   31000    0.9880782   -964249.07            0   -964226.34    38989.518   -623257.84       113350   -5.4985253   -308249.46        56160   -5.4887724   -315008.38        57190   -5.5081025   -115558.74        28080   -4.1153396   -127616.23        28662   -4.4524538   -192690.72        28080   -6.8622052   -187392.15        28528   -6.5687099 
   32000   0.98072875   -964252.65            0   -964230.09    38976.393   -623260.88       113350   -5.4985521    -308250.9        56160   -5.4887982   -315009.97        57190   -5.5081303   -115562.43        28080   -4.1154712   -127615.83        28662   -4.4524399   -192688.47        28080   -6.8621251   -187394.14        28528   -6.5687795 
   33000   0.98552799   -964251.04            0   -964228.36    39012.175    -623259.6       113350   -5.4985408   -308248.86        56160   -5.4887617   -315010.75        57190   -5.5081438   -115538.82        28080   -4.1146302   -127626.63        28662   -4.4528165   -192710.04        28080   -6.8628932   -187384.12        28528   -6.5684282 
   34000    1.0313559   -964246.27            0   -964222.55    38965.355   -623254.54       113350   -5.4984962   -308247.46        56160   -5.4887368   -315007.09        57190   -5.5080798   -115578.98        28080   -4.1160606   -127605.19        28662   -4.4520685   -192668.48        28080    -6.861413    -187401.9        28528   -6.5690514 
   35000   0.99351875   -964249.58            0   -964226.73    39014.936   -623257.72       113350   -5.4985242   -308250.08        56160   -5.4887835   -315007.64        57190   -5.5080896    -115537.4        28080   -4.1145798   -127626.46        28662   -4.4528106   -192712.68        28080   -6.8629871   -187381.19        28528   -6.5683254 
   36000   0.99122067   -964251.96            0   -964229.15    38981.497   -623260.41       113350    -5.498548   -308248.28        56160   -5.4887514   -315012.13        57190   -5.5081681   -115560.12        28080   -4.1153888   -127616.49        28662   -4.4524629   -192688.16        28080    -6.862114   -187395.64        28528   -6.5688321 
   37000    1.0139855   -964248.06            0   -964224.73    38974.469   -623255.95       113350   -5.4985086   -308247.42        56160   -5.4887362   -315008.53        57190    -5.508105   -115566.92        28080    -4.115631   -127611.93        28662   -4.4523038    -192680.5        28080   -6.8618413    -187396.6        28528   -6.5688655 
   38000   0.99907614   -964247.86            0   -964224.87    39024.627   -623256.35       113350   -5.4985122   -308247.97        56160   -5.4887458   -315008.39        57190   -5.5081026   -115533.33        28080   -4.1144347   -127627.49        28662   -4.4528465   -192714.64        28080   -6.8630569    -187380.9        28528   -6.5683153 
   39000   0.98948043   -964250.87            0    -964228.1    38955.144   -623258.67       113350   -5.4985326   -308249.53        56160   -5.4887736   -315009.14        57190   -5.5081158   -115581.35        28080   -4.1161449   -127605.54        28662   -4.4520807   -192668.18        28080   -6.8614022   -187403.61        28528   -6.5691113 
   40000    1.0033562   -964249.23            0   -964226.15    39020.158   -623258.35       113350   -5.4985298   -308246.52        56160     -5.48872   -315011.83        57190   -5.5081629   -115532.44        28080    -4.114403   -127630.29        28662   -4.4529444   -192714.08        28080    -6.863037   -187381.54        28528   -6.5683379 
   41000    1.0127259   -964248.27            0   -964224.97    38980.304   -623256.07       113350   -5.4985097   -308251.16        56160   -5.4888028    -315004.9        57190   -5.5080417   -115569.43        28080   -4.1157203   -127608.59        28662   -4.4521871   -192681.74        28080   -6.8618852   -187396.32        28528   -6.5688558 
   42000    0.9941602   -964251.49            0   -964228.62    38979.567   -623259.96       113350    -5.498544   -308247.47        56160    -5.488737   -315012.49        57190   -5.5081743   -115558.49        28080   -4.1153308   -127617.66        28662   -4.4525036   -192688.98        28080   -6.8621432   -187394.83        28528   -6.5688037 
   43000   0.98700322   -964250.61            0   -964227.91    39017.555   -623259.24       113350   -5.4985376   -308250.07        56160   -5.4887833   -315009.17        57190   -5.5081163   -115536.59        28080   -4.1145508   -127627.07        28662    -4.452832   -192713.48        28080   -6.8630157    -187382.1        28528   -6.5683574 
   44000    1.0173709   -964246.92            0   -964223.51    38957.765   -623255.26       113350   -5.4985025   -308247.46        56160   -5.4887368    -315007.8        57190   -5.5080923   -115583.36        28080   -4.1162166      -127602        28662   -4.4519574   -192664.09        28080   -6.8612569    -187405.8        28528   -6.5691881 
   45000    0.9847685   -964250.49            0   -964227.84    39024.621   -623259.99       113350   -5.4985442      -308250        56160   -5.4887821   -315009.99        57190   -5.5081306   -115532.15        28080   -4.1143928   -127630.25        28662   -4.4529429   -192717.85        28080   -6.8631713   -187379.74        28528   -6.5682746 
   46000   0.98872334   -964251.55            0   -964228.81    38965.276    -623259.4       113350    -5.498539      -308248        56160   -5.4887464    -315011.4        57190   -5.5081553    -115569.9        28080   -4.1157373   -127611.34        28662   -4.4522832   -192678.09        28080   -6.8617555   -187400.06        28528    -6.568987 
   47000    1.0245954   -964247.31            0   -964223.73    39003.908   -623256.02       113350   -5.4985092   -308250.33        56160   -5.4887879   -315005.69        57190   -5.5080554   -115552.19        28080   -4.1151066   -127618.07        28662   -4.4525181   -192698.13        28080   -6.8624691   -187387.61        28528   -6.5685507 
   48000   0.99382047   -964249.36            0    -964226.5    38988.785   -623257.95       113350   -5.4985263   -308246.12        56160   -5.4887129   -315011.83        57190   -5.5081628   -115552.11        28080   -4.1151035   -127620.38        28662   -4.4525986   -192694.01        28080   -6.8623224   -187391.45        28528   -6.5686852 
   49000   0.98265863   -964253.64            0   -964231.04    38977.523   -623261.97       113350   -5.4985617   -308251.71        56160   -5.4888124   -315010.27        57190   -5.5081355   -115563.05        28080   -4.1154931   -127615.29        28662   -4.4524211   -192688.66        28080   -6.8621317   -187394.97        28528   -6.5688087 
   50000   0.99720121   -964250.25            0   -964227.31    38998.068   -623258.53       113350   -5.4985313   -308249.52        56160   -5.4887735   -315009.01        57190   -5.5081135   -115547.87        28080   -4.1149527   -127621.62        28662   -4.4526419   -192701.64        28080   -6.8625942   -187387.39        28528   -6.5685427 
   51000    1.0227511   -964245.92            0   -964222.39    38985.748   -623253.74       113350   -5.4984891   -308245.28        56160    -5.488698   -315008.46        57190   -5.5081039   -115562.69        28080   -4.1154804   -127613.03        28662   -4.4523423   -192682.59        28080   -6.8619157   -187395.42        28528   -6.5688245 
Loop time of 10083.7 on 30 procs for 42000 steps with 177984 atoms

Performance: 0.360 ns/day, 66.691 hours/ns, 4.165 timesteps/s
98.1% CPU use with 30 MPI tasks x no OpenMP threads

MPI task timing breakdown:
Section |  min time  |  avg time  |  max time  |%varavg| %total
---------------------------------------------------------------
Pair    | 7818.8     | 8306.5     | 10009      | 423.4 | 82.38
Neigh   | 0          | 0          | 0          |   0.0 |  0.00
Comm    | 36.212     | 1737.2     | 2227.5     | 926.9 | 17.23
Output  | 5.7094     | 5.7106     | 5.7107     |   0.0 |  0.06
Modify  | 16.705     | 21.376     | 23.521     |  37.4 |  0.21
Other   |            | 12.95      |            |       |  0.13

Nlocal:    5932.8 ave 6422 max 5572 min
Histogram: 4 0 6 6 0 9 2 0 0 3
Nghost:    6629.87 ave 7008 max 6406 min
Histogram: 4 4 5 6 2 6 0 0 0 3
Neighs:    178613 ave 205243 max 155826 min
Histogram: 4 1 1 8 4 1 6 2 0 3
FullNghs:  357227 ave 408154 max 311201 min
Histogram: 4 1 1 7 5 1 6 2 0 3

Total # of neighbors = 10716796
Ave neighs/atom = 60.2121
Neighbor list builds = 0
Dangerous builds = 0
thermo 100
run 5000
Per MPI rank memory allocation (min/avg/max) = 18.67 | 19.33 | 20.7 Mbytes
Step Temp E_pair E_mol TotEng Press c_interface_energy v_number_of_interface_atoms v_interface_energy_per_atom c_interface_1_energy v_number_of_unfrozen_interface_1_atoms v_interface_1_energy_per_atom c_interface_2_energy v_number_of_unfrozen_interface_2_atoms v_interface_2_energy_per_atom c_type_1_interface_1_energy v_number_of_type_1_interface_1_atoms v_interface_1_type_1_energy_per_atom c_type_1_interface_2_energy v_number_of_type_1_interface_2_atoms v_interface_2_type_1_energy_per_atom c_type_2_interface_1_energy v_number_of_type_2_interface_1_atoms v_interface_1_type_2_energy_per_atom c_type_2_interface_2_energy v_number_of_type_2_interface_2_atoms v_interface_2_type_2_energy_per_atom 
   51000    1.0227511   -964245.92            0   -964222.39    38985.748   -623253.74       113350   -5.4984891   -308245.28        56160    -5.488698   -315008.46        57190   -5.5081039   -115562.69        28080   -4.1154804   -127613.03        28662   -4.4523423   -192682.59        28080   -6.8619157   -187395.42        28528   -6.5688245 
   51100    1.0192674   -964246.32            0   -964222.87    38986.293   -623253.73       113350    -5.498489   -308245.26        56160   -5.4886977   -315008.47        57190   -5.5081041   -115561.99        28080   -4.1154554   -127613.14        28662   -4.4523458   -192683.27        28080     -6.86194   -187395.34        28528   -6.5688214 
   51200    1.0144505   -964247.61            0   -964224.27    38984.721   -623255.64       113350   -5.4985059   -308246.16        56160   -5.4887138   -315009.48        57190   -5.5081217   -115560.74        28080   -4.1154111   -127614.39        28662   -4.4523895   -192685.42        28080   -6.8620164   -187395.09        28528   -6.5688128 
   51300    1.0035223   -964249.33            0   -964226.25    38983.341   -623256.82       113350   -5.4985163   -308246.35        56160   -5.4887171   -315010.46        57190   -5.5081389    -115558.8        28080    -4.115342   -127616.49        28662   -4.4524628   -192687.55        28080   -6.8620923   -187393.97        28528   -6.5687736 
   51400   0.98897618   -964251.01            0   -964228.26    38982.085   -623258.99       113350   -5.4985354   -308247.91        56160   -5.4887448   -315011.08        57190   -5.5081496   -115557.96        28080   -4.1153118   -127617.64        28662   -4.4525029   -192689.95        28080   -6.8621779   -187393.44        28528   -6.5687549 
   51500   0.98162269   -964252.31            0   -964229.73    38983.414   -623260.29       113350   -5.4985469    -308248.3        56160   -5.4887518   -315011.99        57190   -5.5081655   -115556.39        28080   -4.1152559   -127618.46        28662   -4.4525316   -192691.92        28080   -6.8622477   -187393.53        28528    -6.568758 
   51600   0.98580198   -964253.07            0   -964230.39    38984.487   -623261.49       113350   -5.4985575   -308249.36        56160   -5.4887707   -315012.13        57190    -5.508168   -115555.63        28080    -4.115229   -127619.59        28662   -4.4525711   -192693.73        28080   -6.8623124   -187392.54        28528   -6.5687233 
   51700   0.98595125   -964253.03            0   -964230.35    38985.413   -623261.53       113350   -5.4985578   -308249.71        56160   -5.4887769   -315011.82        57190   -5.5081625   -115554.74        28080   -4.1151974    -127619.7        28662   -4.4525748   -192694.97        28080   -6.8623564   -187392.12        28528   -6.5687085 
   51800   0.98423258   -964252.25            0   -964229.61    38990.881   -623261.08       113350   -5.4985539   -308250.28        56160    -5.488787   -315010.81        57190   -5.5081449    -115553.7        28080   -4.1151604   -127620.23        28662   -4.4525932   -192696.57        28080   -6.8624135   -187390.58        28528   -6.5686546 
   51900   0.99137168   -964251.04            0   -964228.23    38994.675   -623260.03       113350   -5.4985446   -308250.11        56160    -5.488784   -315009.92        57190   -5.5081293   -115552.27        28080   -4.1151092    -127619.9        28662   -4.4525818   -192697.85        28080   -6.8624589   -187390.02        28528   -6.5686349 
   52000    1.0038829   -964249.63            0   -964226.53    38998.297   -623258.84       113350   -5.4985341   -308250.28        56160    -5.488787   -315008.56        57190   -5.5081056   -115551.35        28080   -4.1150764   -127620.14        28662   -4.4525903   -192698.93        28080   -6.8624975   -187388.42        28528   -6.5685789 
   52100    1.0078756   -964248.19            0   -964225.01    39000.517   -623257.39       113350   -5.4985213   -308249.49        56160   -5.4887729    -315007.9        57190   -5.5080941   -115550.45        28080   -4.1150447    -127620.3        28662   -4.4525956   -192699.03        28080   -6.8625011    -187387.6        28528   -6.5685503 
   52200    1.0137325   -964247.23            0   -964223.91    39005.341   -623256.46       113350   -5.4985131   -308249.97        56160   -5.4887816   -315006.48        57190   -5.5080693    -115550.7        28080   -4.1150536    -127618.9        28662   -4.4525469   -192699.27        28080   -6.8625096   -187387.59        28528   -6.5685497 
   52300    1.0138883   -964246.66            0   -964223.33    39005.147   -623255.43       113350    -5.498504   -308250.04        56160   -5.4887828   -315005.39        57190   -5.5080502   -115551.34        28080   -4.1150763   -127618.16        28662    -4.452521    -192698.7        28080   -6.8624892   -187387.23        28528   -6.5685372 
   52400    1.0153435   -964246.75            0    -964223.4    39002.929   -623255.27       113350   -5.4985026    -308249.7        56160   -5.4887768   -315005.57        57190   -5.5080533   -115552.02        28080   -4.1151004   -127617.99        28662   -4.4525153   -192697.68        28080   -6.8624531   -187387.58        28528   -6.5685494 
   52500    1.0098644   -964247.43            0   -964224.19    38999.995   -623255.86       113350   -5.4985078   -308250.48        56160   -5.4887907   -315005.38        57190     -5.50805   -115553.99        28080   -4.1151706   -127616.56        28662   -4.4524654   -192696.49        28080   -6.8624107   -187388.82        28528   -6.5685929 
   52600    1.0069944   -964248.59            0   -964225.42    38995.245   -623256.79       113350    -5.498516   -308250.53        56160   -5.4887915   -315006.26        57190   -5.5080655   -115555.59        28080   -4.1152275   -127616.24        28662   -4.4524541   -192694.94        28080   -6.8623555   -187390.03        28528   -6.5686352 
   52700   0.99980814   -964249.93            0   -964226.93    38989.829    -623257.9       113350   -5.4985258   -308250.91        56160   -5.4887983   -315006.99        57190   -5.5080781   -115557.36        28080   -4.1152908   -127615.92        28662   -4.4524431   -192693.55        28080   -6.8623059   -187391.06        28528   -6.5686716 
   52800   0.99398046   -964251.27            0    -964228.4    38986.564   -623259.21       113350   -5.4985374   -308251.46        56160   -5.4888081   -315007.75        57190   -5.5080914   -115559.13        28080   -4.1153536   -127615.04        28662   -4.4524124   -192692.33        28080   -6.8622626    -187392.7        28528   -6.5687291 
   52900   0.98643467   -964252.16            0   -964229.47    38982.791   -623260.04       113350   -5.4985447   -308251.45        56160   -5.4888078   -315008.59        57190   -5.5081061   -115559.92        28080   -4.1153816   -127616.32        28662   -4.4524569   -192691.53        28080    -6.862234   -187392.27        28528   -6.5687139 
   53000   0.98325322   -964252.52            0   -964229.89    38978.552   -623260.57       113350   -5.4985493   -308251.18        56160    -5.488803   -315009.39        57190   -5.5081201   -115560.51        28080   -4.1154029   -127616.19        28662   -4.4524523   -192690.66        28080   -6.8622031    -187393.2        28528   -6.5687465 
   53100   0.98719166   -964252.28            0   -964229.57    38979.224   -623260.15       113350   -5.4985457   -308250.34        56160   -5.4887881   -315009.81        57190   -5.5081276   -115560.53        28080   -4.1154034   -127616.29        28662    -4.452456   -192689.81        28080   -6.8621728   -187393.52        28528   -6.5687577 
   53200   0.99136067   -964251.44            0   -964228.64    38978.945   -623259.59       113350   -5.4985407   -308249.35        56160   -5.4887705   -315010.24        57190    -5.508135   -115560.19        28080   -4.1153914    -127616.8        28662   -4.4524735   -192689.16        28080   -6.8621497   -187393.44        28528    -6.568755 
   53300   0.99864152   -964250.32            0   -964227.34     38982.86   -623258.08       113350   -5.4985274   -308248.43        56160   -5.4887541   -315009.65        57190   -5.5081247    -115559.4        28080   -4.1153631   -127616.03        28662   -4.4524467   -192689.04        28080   -6.8621451   -187393.62        28528   -6.5687614 
   53400    1.0054884   -964249.13            0      -964226    38986.108   -623257.27       113350   -5.4985203   -308247.98        56160   -5.4887461   -315009.29        57190   -5.5081184   -115558.47        28080     -4.11533   -127617.03        28662   -4.4524815   -192689.52        28080   -6.8621622   -187392.26        28528   -6.5687137 
   53500    1.0081235   -964248.12            0   -964224.92    38990.915   -623256.15       113350   -5.4985104   -308247.68        56160   -5.4887407   -315008.47        57190   -5.5081041   -115556.96        28080   -4.1152764   -127617.08        28662   -4.4524835   -192690.71        28080   -6.8622049   -187391.39        28528   -6.5686831 
   53600    1.0121711   -964247.52            0   -964224.23    38996.067   -623255.51       113350   -5.4985047   -308246.78        56160   -5.4887248   -315008.73        57190   -5.5081085   -115554.84        28080   -4.1152009   -127617.38        28662   -4.4524938   -192691.94        28080   -6.8622486   -187391.35        28528   -6.5686817 
   53700     1.015292   -964247.41            0   -964224.05    38999.766   -623255.63       113350   -5.4985057   -308246.94        56160   -5.4887276   -315008.69        57190   -5.5081078   -115553.12        28080   -4.1151396   -127617.79        28662   -4.4525083   -192693.82        28080   -6.8623155   -187390.89        28528   -6.5686656 
   53800    1.0144022   -964247.82            0   -964224.48     39000.53   -623256.12       113350   -5.4985101    -308246.8        56160   -5.4887251   -315009.32        57190   -5.5081189   -115551.81        28080   -4.1150931   -127619.03        28662   -4.4525514   -192694.99        28080   -6.8623572   -187390.29        28528   -6.5686446 
   53900    1.0081319   -964248.68            0   -964225.49    38999.238    -623257.3       113350   -5.4985205   -308247.19        56160    -5.488732   -315010.11        57190   -5.5081327   -115550.98        28080   -4.1150633    -127619.7        28662   -4.4525749   -192696.21        28080   -6.8624006   -187390.41        28528   -6.5686487 
   54000   0.99544187   -964249.75            0   -964226.85    38998.174   -623258.58       113350   -5.4985318   -308248.29        56160   -5.4887516   -315010.29        57190   -5.5081359   -115551.25        28080   -4.1150729   -127619.83        28662   -4.4525794   -192697.05        28080   -6.8624304   -187390.46        28528   -6.5686505 
   54100   0.98712493   -964250.67            0   -964227.96    38995.784   -623259.57       113350   -5.4985405   -308249.18        56160   -5.4887674   -315010.39        57190   -5.5081376   -115551.94        28080   -4.1150974   -127620.18        28662   -4.4525916   -192697.24        28080   -6.8624374   -187390.21        28528   -6.5686417 
   54200   0.99248782   -964251.33            0   -964228.49    38994.728   -623259.87       113350   -5.4985432   -308249.75        56160   -5.4887776   -315010.12        57190   -5.5081329   -115552.49        28080   -4.1151173   -127619.71        28662   -4.4525753   -192697.26        28080   -6.8624379   -187390.41        28528   -6.5686486 
   54300   0.99409495   -964251.45            0   -964228.58     38992.59   -623260.38       113350   -5.4985477   -308250.93        56160   -5.4887987   -315009.45        57190   -5.5081211   -115553.65        28080   -4.1151586   -127619.56        28662   -4.4525699   -192697.28        28080   -6.8624387   -187389.89        28528   -6.5686304 
   54400   0.99823872   -964251.33            0   -964228.36     38994.55   -623259.97       113350    -5.498544   -308251.15        56160   -5.4888024   -315008.82        57190   -5.5081102   -115554.06        28080    -4.115173   -127618.24        28662    -4.452524   -192697.09        28080   -6.8624319   -187390.58        28528   -6.5686545 
[...]
Dangerous builds = 0
thermo 100
run 4000
Per MPI rank memory allocation (min/avg/max) = 10.96 | 11.12 | 11.72 Mbytes
Step Temp E_pair E_mol TotEng Press c_type_1_energy v_number_of_type_1_atoms v_atom_type_1_energy_per_atom c_type_2_energy v_number_of_type_2_atoms v_atom_type_2_energy_per_atom 
    4000 2.6934822e-19     -48216.8            0     -48216.8    140939.42   -17909.991         4394   -4.0760107   -30306.809         4394   -6.8973165 
    4100 3.6352358e-19     -48216.8            0     -48216.8    140939.42   -17909.991         4394   -4.0760107   -30306.809         4394   -6.8973165 
    4200 5.0491363e-19     -48216.8            0     -48216.8    140939.42   -17909.991         4394   -4.0760107   -30306.809         4394   -6.8973165 
    4300 6.8841445e-19     -48216.8            0     -48216.8    140939.42   -17909.991         4394   -4.0760107   -30306.809         4394   -6.8973165 
    4400 9.4385335e-19     -48216.8            0     -48216.8    140939.42   -17909.991         4394   -4.0760107   -30306.809         4394   -6.8973165 
    4500 1.2816651e-18     -48216.8            0     -48216.8    140939.42   -17909.991         4394   -4.0760107   -30306.809         4394   -6.8973165 
    4600 1.7698251e-18     -48216.8            0     -48216.8    140939.42   -17909.991         4394   -4.0760107   -30306.809         4394   -6.8973165 
    4700 2.4228398e-18     -48216.8            0     -48216.8    140939.42   -17909.991         4394   -4.0760107   -30306.809         4394   -6.8973165 
    4800 3.3923319e-18     -48216.8            0     -48216.8    140939.42   -17909.991         4394   -4.0760107   -30306.809         4394   -6.8973165 
    4900 4.7370739e-18     -48216.8            0     -48216.8    140939.42   -17909.991         4394   -4.0760107   -30306.809         4394   -6.8973165 
    5000 6.4627574e-18     -48216.8            0     -48216.8    140939.42   -17909.991         4394   -4.0760107   -30306.809         4394   -6.8973165 
    5100 9.0764095e-18     -48216.8            0     -48216.8    140939.42   -17909.991         4394   -4.0760107   -30306.809         4394   -6.8973165 
    5200 1.2702163e-17     -48216.8            0     -48216.8    140939.42   -17909.991         4394   -4.0760107   -30306.809         4394   -6.8973165 
    5300 1.8243039e-17     -48216.8            0     -48216.8    140939.42   -17909.991         4394   -4.0760107   -30306.809         4394   -6.8973165 
    5400 2.5984649e-17     -48216.8            0     -48216.8    140939.42   -17909.991         4394   -4.0760107   -30306.809         4394   -6.8973165 
    5500 3.7020709e-17     -48216.8            0     -48216.8    140939.42   -17909.991         4394   -4.0760107   -30306.809         4394   -6.8973165 
    5600 5.3494981e-17     -48216.8            0     -48216.8    140939.42   -17909.991         4394   -4.0760107   -30306.809         4394   -6.8973165 
    5700 8.0632753e-17     -48216.8            0     -48216.8    140939.42   -17909.991         4394   -4.0760107   -30306.809         4394   -6.8973165 
    5800 1.2360293e-16     -48216.8            0     -48216.8    140939.42   -17909.991         4394   -4.0760107   -30306.809         4394   -6.8973165 
    5900 1.9075288e-16     -48216.8            0     -48216.8    140939.42   -17909.991         4394   -4.0760107   -30306.809         4394   -6.8973165 
    6000 3.0257352e-16     -48216.8            0     -48216.8    140939.42   -17909.991         4394   -4.0760107   -30306.809         4394   -6.8973165 
    6100 4.9668494e-16     -48216.8            0     -48216.8    140939.42   -17909.991         4394   -4.0760107   -30306.809         4394   -6.8973165 
    6200 8.4324881e-16     -48216.8            0     -48216.8    140939.42   -17909.991         4394   -4.0760107   -30306.809         4394   -6.8973165 
    6300 1.4809608e-15     -48216.8            0     -48216.8    140939.42   -17909.991         4394   -4.0760107   -30306.809         4394   -6.8973165 
    6400 2.6709964e-15     -48216.8            0     -48216.8    140939.42   -17909.991         4394   -4.0760107   -30306.809         4394   -6.8973165 
    6500 4.902279e-15     -48216.8            0     -48216.8    140939.42   -17909.991         4394   -4.0760107   -30306.809         4394   -6.8973165 
    6600 9.2159961e-15     -48216.8            0     -48216.8    140939.42   -17909.991         4394   -4.0760107   -30306.809         4394   -6.8973165 
    6700 1.7650194e-14     -48216.8            0     -48216.8    140939.42   -17909.991         4394   -4.0760107   -30306.809         4394   -6.8973165 
    6800 3.4335506e-14     -48216.8            0     -48216.8    140939.42   -17909.991         4394   -4.0760107   -30306.809         4394   -6.8973165 
    6900 6.746796e-14     -48216.8            0     -48216.8    140939.42   -17909.991         4394   -4.0760107   -30306.809         4394   -6.8973165 
    7000 1.3381351e-13     -48216.8            0     -48216.8    140939.42   -17909.991         4394   -4.0760107   -30306.809         4394   -6.8973165 
    7100 2.6725445e-13     -48216.8            0     -48216.8    140939.42   -17909.991         4394   -4.0760107   -30306.809         4394   -6.8973165 
    7200 5.3706436e-13     -48216.8            0     -48216.8    140939.42   -17909.991         4394   -4.0760107   -30306.809         4394   -6.8973165 
    7300 1.084857e-12     -48216.8            0     -48216.8    140939.42   -17909.991         4394   -4.0760107   -30306.809         4394   -6.8973165 
    7400 2.2008135e-12     -48216.8            0     -48216.8    140939.42   -17909.991         4394   -4.0760107   -30306.809         4394   -6.8973165 
    7500 4.4816413e-12     -48216.8            0     -48216.8    140939.42   -17909.991         4394   -4.0760107   -30306.809         4394   -6.8973165 
    7600 9.1552342e-12     -48216.8            0     -48216.8    140939.42   -17909.991         4394   -4.0760107   -30306.809         4394   -6.8973165 
    7700 1.8761705e-11     -48216.8            0     -48216.8    140939.42   -17909.991         4394   -4.0760107   -30306.809         4394   -6.8973165 
    7800 3.8558139e-11     -48216.8            0     -48216.8    140939.42   -17909.991         4394   -4.0760107   -30306.809         4394   -6.8973165 
    7900 7.9454879e-11     -48216.8            0     -48216.8    140939.42   -17909.991         4394   -4.0760107   -30306.809         4394   -6.8973165 
    8000 1.6415548e-10     -48216.8            0     -48216.8    140939.42   -17909.991         4394   -4.0760107   -30306.809         4394   -6.8973165 
Loop time of 56.6941 on 30 procs for 4000 steps with 8788 atoms

Performance: 6.096 ns/day, 3.937 hours/ns, 70.554 timesteps/s
98.1% CPU use with 30 MPI tasks x no OpenMP threads

MPI task timing breakdown:
Section |  min time  |  avg time  |  max time  |%varavg| %total
---------------------------------------------------------------
Pair    | 41.942     | 43.346     | 52.226     |  27.0 | 76.46
Neigh   | 0          | 0          | 0          |   0.0 |  0.00
Comm    | 4.062      | 11.581     | 13.081     |  44.7 | 20.43
Output  | 0.044662   | 0.044734   | 0.045339   |   0.1 |  0.08
Modify  | 0.11944    | 1.5468     | 2.1927     |  45.7 |  2.73
Other   |            | 0.1752     |            |       |  0.31

Nlocal:    292.933 ave 340 max 255 min
Histogram: 1 3 5 6 3 3 4 4 0 1
Nghost:    1417.07 ave 1513 max 1344 min
Histogram: 4 10 3 1 0 0 1 1 7 3
Neighs:    9080.93 ave 10530 max 7938 min
Histogram: 1 4 4 4 6 3 5 1 1 1
FullNghs:  18161.9 ave 21080 max 15810 min
Histogram: 1 3 5 6 3 3 4 4 0 1

Total # of neighbors = 544856
Ave neighs/atom = 62
Neighbor list builds = 0
Dangerous builds = 0


clear


#FePt_L10_100-A1_001_cell_2_only
units metal
dimension 3
boundary p p p

atom_style atomic
pair_style meam/c
read_data cell_2_only.in
  triclinic box = (0 0 0) to (49.79 49.79 49.79) with tilt (0 0 0)
  3 by 2 by 5 MPI processor grid
  reading atoms ...
  8788 atoms
  read_data CPU = 0.0537221 secs

#Pair_Coeff if MEAM
pair_coeff * * library.meam Fe(L10) Pt(L10) FePt.meam Fe(L10) Pt(L10)
Reading potential file library.meam with DATE: 2012-06-29
Reading potential file FePt.meam with DATE: 2007-06-11

#Energy Compute
compute per_atom all pe/atom

#Atom Type Computes
group atom_type_1 type 1
4359 atoms in group atom_type_1
group atom_type_2 type 2
4429 atoms in group atom_type_2

#Atom Type 1 Computes
compute type_1_energy atom_type_1 reduce sum c_per_atom
variable number_of_type_1_atoms equal count(atom_type_1)
variable atom_type_1_energy_per_atom equal c_type_1_energy/v_number_of_type_1_atoms

#Atom Type 2 Computes
compute type_2_energy atom_type_2 reduce sum c_per_atom
variable number_of_type_2_atoms equal count(atom_type_2)
variable atom_type_2_energy_per_atom equal c_type_2_energy/v_number_of_type_2_atoms

#Stress computations
compute stress all stress/atom NULL
variable total_stress atom abs(c_stress[1])+abs(c_stress[2])+abs(c_stress[3])+abs(c_stress[4])+abs(c_stress[5])+abs(c_stress[6])
variable average_stress atom v_total_stress/6

#Thermo output style
thermo_style custom step temp epair emol etotal press c_type_1_energy v_number_of_type_1_atoms v_atom_type_1_energy_per_atom c_type_2_energy v_number_of_type_2_atoms v_atom_type_2_energy_per_atom

#Thermo output timesteps
thermo 1000

dump MiDump all custom 1000 FePt_L10_100-A1_001_cell_2_only.xyz id type xs ys zs fx fy fz c_stress[1] c_stress[2] c_stress[3] c_stress[4] c_stress[5] c_stress[6] v_average_stress v_total_stress
fix run all nvt temp 1.0 1.0 $(100.0*dt)
fix run all nvt temp 1.0 1.0 0.10000000000000000555
run 4000
Neighbor list info ...
  update every 1 steps, delay 10 steps, check yes
  max neighbors/atom: 2000, page size: 100000
  master list distance cutoff = 6
  ghost atom cutoff = 6
  binsize = 3, bins = 17 17 17
  2 neighbor lists, perpetual/occasional/extra = 2 0 0
  (1) pair meam/c, perpetual
      attributes: full, newton on
      pair build: full/bin/atomonly
      stencil: full/bin/3d
      bin: standard
  (2) pair meam/c, perpetual, half/full from (1)
      attributes: half, newton on
      pair build: halffull/newton
      stencil: none
      bin: none
Per MPI rank memory allocation (min/avg/max) = 10.79 | 10.95 | 11.56 Mbytes
Step Temp E_pair E_mol TotEng Press c_type_1_energy v_number_of_type_1_atoms v_atom_type_1_energy_per_atom c_type_2_energy v_number_of_type_2_atoms v_atom_type_2_energy_per_atom 
       0            0   -48408.562            0   -48408.562   -18430.374   -19274.663         4359   -4.4218085   -29133.899         4429   -6.5779858 
    1000    1.0440976    -48495.95            0   -48494.764   -28800.554   -19436.516         4359   -4.4589392   -29059.434         4429   -6.5611727 
    2000   0.98617667       -48496            0   -48494.879   -28704.378   -19435.465         4359   -4.4586981   -29060.535         4429   -6.5614212 
    3000   0.93366277   -48496.081            0    -48495.02   -28727.068   -19435.541         4359   -4.4587155    -29060.54         4429   -6.5614224 
    4000   0.99126833   -48496.016            0    -48494.89   -28732.332   -19435.537         4359   -4.4587147   -29060.479         4429   -6.5614086 
Loop time of 74.8644 on 30 procs for 4000 steps with 8788 atoms

Performance: 4.616 ns/day, 5.199 hours/ns, 53.430 timesteps/s
98.1% CPU use with 30 MPI tasks x no OpenMP threads

MPI task timing breakdown:
Section |  min time  |  avg time  |  max time  |%varavg| %total
---------------------------------------------------------------
Pair    | 52.058     | 55.212     | 73.097     |  48.2 | 73.75
Neigh   | 0          | 0          | 0          |   0.0 |  0.00
Comm    | 1.3137     | 18.809     | 21.948     |  80.5 | 25.12
Output  | 0.055944   | 0.055951   | 0.056007   |   0.0 |  0.07
Modify  | 0.1943     | 0.60933    | 0.68693    |  16.3 |  0.81
Other   |            | 0.1786     |            |       |  0.24

Nlocal:    292.933 ave 378 max 240 min
Histogram: 4 0 12 1 0 8 3 0 0 2
Nghost:    1417.07 ave 1560 max 1335 min
Histogram: 6 3 6 5 0 1 4 1 3 1
Neighs:    7909.2 ave 10206 max 6480 min
Histogram: 4 0 12 1 0 8 3 0 0 2
FullNghs:  15818.4 ave 20412 max 12960 min
Histogram: 4 0 12 1 0 8 3 0 0 2

Total # of neighbors = 474552
Ave neighs/atom = 54
Neighbor list builds = 0
Dangerous builds = 0
thermo 100
run 4000
Per MPI rank memory allocation (min/avg/max) = 10.94 | 11.14 | 11.69 Mbytes
Step Temp E_pair E_mol TotEng Press c_type_1_energy v_number_of_type_1_atoms v_atom_type_1_energy_per_atom c_type_2_energy v_number_of_type_2_atoms v_atom_type_2_energy_per_atom 
    4000   0.99126833   -48496.016            0    -48494.89   -28732.332   -19435.537         4359   -4.4587147   -29060.479         4429   -6.5614086 
    4100   0.93796617   -48496.055            0   -48494.989    -28745.78   -19435.858         4359   -4.4587883   -29060.196         4429   -6.5613449 
    4200   0.95015266   -48496.049            0    -48494.97   -28726.445   -19435.523         4359   -4.4587114   -29060.526         4429   -6.5614192 
    4300   0.99583438   -48495.971            0    -48494.84    -28727.89   -19435.603         4359   -4.4587298   -29060.368         4429   -6.5613837 
    4400    1.0603785   -48495.931            0   -48494.727   -28731.532   -19435.662         4359   -4.4587432    -29060.27         4429   -6.5613615 
    4500     1.044656   -48495.921            0   -48494.735   -28721.374   -19435.367         4359   -4.4586757   -29060.554         4429   -6.5614256 
    4600    1.0068427   -48495.985            0   -48494.842    -28709.53   -19435.356         4359   -4.4586731   -29060.629         4429   -6.5614426 
    4700   0.94137308   -48496.009            0    -48494.94   -28705.693     -19435.2         4359   -4.4586374   -29060.809         4429   -6.5614832 
    4800   0.95140667   -48496.014            0   -48494.934   -28724.368   -19435.469         4359    -4.458699   -29060.545         4429   -6.5614236 
    4900    1.0221072   -48495.992            0   -48494.832   -28723.271    -19435.46         4359   -4.4586969   -29060.533         4429   -6.5614208 
    5000    1.0507484   -48495.954            0    -48494.76   -28721.756   -19435.516         4359   -4.4587097   -29060.438         4429   -6.5613994 
    5100    1.0347806   -48495.983            0   -48494.808   -28730.983   -19435.528         4359   -4.4587124   -29060.455         4429   -6.5614033 
    5200   0.97654607   -48496.018            0   -48494.909   -28740.045   -19435.754         4359   -4.4587643   -29060.264         4429   -6.5613601 
    5300   0.94530678   -48496.031            0   -48494.957   -28738.339   -19435.768         4359   -4.4587675   -29060.263         4429   -6.5613599 
    5400   0.96604101   -48496.005            0   -48494.908   -28725.733   -19435.483         4359   -4.4587023   -29060.522         4429   -6.5614183 
    5500    1.0262959   -48495.964            0   -48494.798   -28725.139   -19435.621         4359    -4.458734   -29060.343         4429   -6.5613779 
    5600    1.0493666   -48495.922            0    -48494.73   -28730.461   -19435.491         4359   -4.4587041   -29060.431         4429   -6.5613978 
    5700    1.0318499   -48495.943            0   -48494.771   -28719.681    -19435.51         4359   -4.4587084   -29060.433         4429   -6.5613983 
    5800   0.98250164   -48495.987            0   -48494.871   -28723.386    -19435.59         4359   -4.4587269   -29060.396         4429     -6.56139 
    5900   0.95420762   -48496.011            0   -48494.927   -28725.274   -19435.423         4359   -4.4586885   -29060.588         4429   -6.5614332 
    6000   0.99723316   -48496.034            0   -48494.901   -28724.381   -19435.668         4359   -4.4587446   -29060.366         4429   -6.5613831 
    6100    1.0117445   -48495.997            0   -48494.848   -28728.702   -19435.466         4359   -4.4586982   -29060.532         4429   -6.5614206 
    6200    1.0235959   -48495.994            0   -48494.831   -28719.649   -19435.473         4359      -4.4587   -29060.521         4429   -6.5614181 
    6300   0.98504075   -48495.985            0   -48494.866   -28732.891   -19435.612         4359   -4.4587318   -29060.373         4429   -6.5613848 
    6400   0.96573595   -48495.971            0   -48494.874   -28732.407   -19435.466         4359   -4.4586983   -29060.505         4429   -6.5614145 
    6500    1.0188051   -48495.987            0    -48494.83   -28726.906   -19435.667         4359   -4.4587444    -29060.32         4429   -6.5613728 
    6600    1.0181428   -48495.952            0   -48494.796    -28717.81   -19435.322         4359   -4.4586653    -29060.63         4429   -6.5614429 
    6700    1.0151849    -48495.96            0   -48494.807   -28723.583   -19435.549         4359   -4.4587173   -29060.411         4429   -6.5613933 
    6800   0.99357848   -48495.988            0    -48494.86   -28719.109   -19435.462         4359   -4.4586973   -29060.526         4429   -6.5614194 
    6900   0.96830403   -48496.012            0   -48494.912   -28713.942   -19435.266         4359   -4.4586523   -29060.747         4429   -6.5614691 
    7000   0.96584601   -48495.999            0   -48494.902   -28722.911   -19435.506         4359   -4.4587074   -29060.494         4429    -6.561412 
    7100   0.99581174   -48495.958            0   -48494.827   -28729.498   -19435.572         4359   -4.4587225   -29060.386         4429   -6.5613878 
    7200    1.0514059    -48495.96            0   -48494.766   -28724.876   -19435.568         4359   -4.4587217   -29060.392         4429    -6.561389 
    7300    1.0309154   -48495.984            0   -48494.813     -28724.7   -19435.571         4359   -4.4587225   -29060.413         4429   -6.5613937 
    7400   0.96935347   -48496.027            0   -48494.926   -28740.856   -19435.792         4359   -4.4587732   -29060.235         4429   -6.5613535 
    7500   0.93418706   -48496.033            0   -48494.972   -28736.695   -19435.675         4359   -4.4587464   -29060.357         4429   -6.5613812 
    7600   0.97354678   -48496.002            0   -48494.896   -28728.137   -19435.539         4359    -4.458715   -29060.463         4429    -6.561405 
    7700    1.0295619   -48495.931            0   -48494.761   -28727.756   -19435.532         4359   -4.4587135   -29060.399         4429   -6.5613905 
    7800    1.0535829    -48495.89            0   -48494.693   -28713.002   -19435.291         4359   -4.4586582   -29060.599         4429   -6.5614358 
    7900    1.0372007   -48495.942            0   -48494.764   -28712.831    -19435.34         4359   -4.4586695   -29060.602         4429   -6.5614364 
    8000   0.98056202   -48496.026            0   -48494.912   -28732.105   -19435.698         4359   -4.4587515   -29060.328         4429   -6.5613745 
Loop time of 69.3356 on 30 procs for 4000 steps with 8788 atoms

Performance: 4.984 ns/day, 4.815 hours/ns, 57.690 timesteps/s
98.1% CPU use with 30 MPI tasks x no OpenMP threads

MPI task timing breakdown:
Section |  min time  |  avg time  |  max time  |%varavg| %total
---------------------------------------------------------------
Pair    | 50.293     | 52.568     | 65.739     |  36.2 | 75.82
Neigh   | 0          | 0          | 0          |   0.0 |  0.00
Comm    | 3.1011     | 14.798     | 16.904     |  60.8 | 21.34
Output  | 0.070552   | 0.07064    | 0.072261   |   0.1 |  0.10
Modify  | 0.28707    | 1.7225     | 1.917      |  30.3 |  2.48
Other   |            | 0.1767     |            |       |  0.25

Nlocal:    292.933 ave 343 max 266 min
Histogram: 5 5 7 2 3 2 3 0 2 1
Nghost:    1417.07 ave 1517 max 1348 min
Histogram: 6 10 2 0 0 0 1 4 4 3
Neighs:    8413.87 ave 9909 max 7525 min
Histogram: 4 4 6 6 1 3 2 1 2 1
FullNghs:  16827.7 ave 19924 max 15038 min
Histogram: 4 5 6 3 4 2 3 0 2 1

Total # of neighbors = 504832
Ave neighs/atom = 57.4456
Neighbor list builds = 0
Dangerous builds = 0
Total wall time: 3:48:35
