lammps_data_file_test

216 atoms
1 atom types
0 24 xlo xhi
0 24 ylo yhi
0 24 zlo zhi
0 0 0 xy xz yz

Atoms

1 1 0.0 0.0 0.0
2 1 0.0 0.0 4.0
3 1 0.0 0.0 8.0
4 1 0.0 0.0 12.0
5 1 0.0 0.0 16.0
6 1 0.0 0.0 20.0
7 1 0.0 4.0 0.0
8 1 0.0 4.0 4.0
9 1 0.0 4.0 8.0
10 1 0.0 4.0 12.0
11 1 0.0 4.0 16.0
12 1 0.0 4.0 20.0
13 1 0.0 8.0 0.0
14 1 0.0 8.0 4.0
15 1 0.0 8.0 8.0
16 1 0.0 8.0 12.0
17 1 0.0 8.0 16.0
18 1 0.0 8.0 20.0
19 1 0.0 12.0 0.0
20 1 0.0 12.0 4.0
21 1 0.0 12.0 8.0
22 1 0.0 12.0 12.0
23 1 0.0 12.0 16.0
24 1 0.0 12.0 20.0
25 1 0.0 16.0 0.0
26 1 0.0 16.0 4.0
27 1 0.0 16.0 8.0
28 1 0.0 16.0 12.0
29 1 0.0 16.0 16.0
30 1 0.0 16.0 20.0
31 1 0.0 20.0 0.0
32 1 0.0 20.0 4.0
33 1 0.0 20.0 8.0
34 1 0.0 20.0 12.0
35 1 0.0 20.0 16.0
36 1 0.0 20.0 20.0
37 1 4.0 0.0 0.0
38 1 4.0 0.0 4.0
39 1 4.0 0.0 8.0
40 1 4.0 0.0 12.0
41 1 4.0 0.0 16.0
42 1 4.0 0.0 20.0
43 1 4.0 4.0 0.0
44 1 4.0 4.0 4.0
45 1 4.0 4.0 8.0
46 1 4.0 4.0 12.0
47 1 4.0 4.0 16.0
48 1 4.0 4.0 20.0
49 1 4.0 8.0 0.0
50 1 4.0 8.0 4.0
51 1 4.0 8.0 8.0
52 1 4.0 8.0 12.0
53 1 4.0 8.0 16.0
54 1 4.0 8.0 20.0
55 1 4.0 12.0 0.0
56 1 4.0 12.0 4.0
57 1 4.0 12.0 8.0
58 1 4.0 12.0 12.0
59 1 4.0 12.0 16.0
60 1 4.0 12.0 20.0
61 1 4.0 16.0 0.0
62 1 4.0 16.0 4.0
63 1 4.0 16.0 8.0
64 1 4.0 16.0 12.0
65 1 4.0 16.0 16.0
66 1 4.0 16.0 20.0
67 1 4.0 20.0 0.0
68 1 4.0 20.0 4.0
69 1 4.0 20.0 8.0
70 1 4.0 20.0 12.0
71 1 4.0 20.0 16.0
72 1 4.0 20.0 20.0
73 1 8.0 0.0 0.0
74 1 8.0 0.0 4.0
75 1 8.0 0.0 8.0
76 1 8.0 0.0 12.0
77 1 8.0 0.0 16.0
78 1 8.0 0.0 20.0
79 1 8.0 4.0 0.0
80 1 8.0 4.0 4.0
81 1 8.0 4.0 8.0
82 1 8.0 4.0 12.0
83 1 8.0 4.0 16.0
84 1 8.0 4.0 20.0
85 1 8.0 8.0 0.0
86 1 8.0 8.0 4.0
87 1 8.0 8.0 8.0
88 1 8.0 8.0 12.0
89 1 8.0 8.0 16.0
90 1 8.0 8.0 20.0
91 1 8.0 12.0 0.0
92 1 8.0 12.0 4.0
93 1 8.0 12.0 8.0
94 1 8.0 12.0 12.0
95 1 8.0 12.0 16.0
96 1 8.0 12.0 20.0
97 1 8.0 16.0 0.0
98 1 8.0 16.0 4.0
99 1 8.0 16.0 8.0
100 1 8.0 16.0 12.0
101 1 8.0 16.0 16.0
102 1 8.0 16.0 20.0
103 1 8.0 20.0 0.0
104 1 8.0 20.0 4.0
105 1 8.0 20.0 8.0
106 1 8.0 20.0 12.0
107 1 8.0 20.0 16.0
108 1 8.0 20.0 20.0
109 1 12.0 0.0 0.0
110 1 12.0 0.0 4.0
111 1 12.0 0.0 8.0
112 1 12.0 0.0 12.0
113 1 12.0 0.0 16.0
114 1 12.0 0.0 20.0
115 1 12.0 4.0 0.0
116 1 12.0 4.0 4.0
117 1 12.0 4.0 8.0
118 1 12.0 4.0 12.0
119 1 12.0 4.0 16.0
120 1 12.0 4.0 20.0
121 1 12.0 8.0 0.0
122 1 12.0 8.0 4.0
123 1 12.0 8.0 8.0
124 1 12.0 8.0 12.0
125 1 12.0 8.0 16.0
126 1 12.0 8.0 20.0
127 1 12.0 12.0 0.0
128 1 12.0 12.0 4.0
129 1 12.0 12.0 8.0
130 1 12.0 12.0 12.0
131 1 12.0 12.0 16.0
132 1 12.0 12.0 20.0
133 1 12.0 16.0 0.0
134 1 12.0 16.0 4.0
135 1 12.0 16.0 8.0
136 1 12.0 16.0 12.0
137 1 12.0 16.0 16.0
138 1 12.0 16.0 20.0
139 1 12.0 20.0 0.0
140 1 12.0 20.0 4.0
141 1 12.0 20.0 8.0
142 1 12.0 20.0 12.0
143 1 12.0 20.0 16.0
144 1 12.0 20.0 20.0
145 1 16.0 0.0 0.0
146 1 16.0 0.0 4.0
147 1 16.0 0.0 8.0
148 1 16.0 0.0 12.0
149 1 16.0 0.0 16.0
150 1 16.0 0.0 20.0
151 1 16.0 4.0 0.0
152 1 16.0 4.0 4.0
153 1 16.0 4.0 8.0
154 1 16.0 4.0 12.0
155 1 16.0 4.0 16.0
156 1 16.0 4.0 20.0
157 1 16.0 8.0 0.0
158 1 16.0 8.0 4.0
159 1 16.0 8.0 8.0
160 1 16.0 8.0 12.0
161 1 16.0 8.0 16.0
162 1 16.0 8.0 20.0
163 1 16.0 12.0 0.0
164 1 16.0 12.0 4.0
165 1 16.0 12.0 8.0
166 1 16.0 12.0 12.0
167 1 16.0 12.0 16.0
168 1 16.0 12.0 20.0
169 1 16.0 16.0 0.0
170 1 16.0 16.0 4.0
171 1 16.0 16.0 8.0
172 1 16.0 16.0 12.0
173 1 16.0 16.0 16.0
174 1 16.0 16.0 20.0
175 1 16.0 20.0 0.0
176 1 16.0 20.0 4.0
177 1 16.0 20.0 8.0
178 1 16.0 20.0 12.0
179 1 16.0 20.0 16.0
180 1 16.0 20.0 20.0
181 1 20.0 0.0 0.0
182 1 20.0 0.0 4.0
183 1 20.0 0.0 8.0
184 1 20.0 0.0 12.0
185 1 20.0 0.0 16.0
186 1 20.0 0.0 20.0
187 1 20.0 4.0 0.0
188 1 20.0 4.0 4.0
189 1 20.0 4.0 8.0
190 1 20.0 4.0 12.0
191 1 20.0 4.0 16.0
192 1 20.0 4.0 20.0
193 1 20.0 8.0 0.0
194 1 20.0 8.0 4.0
195 1 20.0 8.0 8.0
196 1 20.0 8.0 12.0
197 1 20.0 8.0 16.0
198 1 20.0 8.0 20.0
199 1 20.0 12.0 0.0
200 1 20.0 12.0 4.0
201 1 20.0 12.0 8.0
202 1 20.0 12.0 12.0
203 1 20.0 12.0 16.0
204 1 20.0 12.0 20.0
205 1 20.0 16.0 0.0
206 1 20.0 16.0 4.0
207 1 20.0 16.0 8.0
208 1 20.0 16.0 12.0
209 1 20.0 16.0 16.0
210 1 20.0 16.0 20.0
211 1 20.0 20.0 0.0
212 1 20.0 20.0 4.0
213 1 20.0 20.0 8.0
214 1 20.0 20.0 12.0
215 1 20.0 20.0 16.0
216 1 20.0 20.0 20.0

Masses

1 55.85

PairIJ Coeffs

1 1 0.764 1.5995 2.7361 12
