lammps_data_file_meam_test

4000 atoms
2 atom types
0 38.3 xlo xhi
0 38.3 ylo yhi
0 37.11 zlo zhi
0.0 0.0 0.0 xy xz yz

Atoms

1 1 0.0 0.0 0.0
2 1 1.915 1.915 0.0
3 2 1.915 0.0 1.8555
4 2 0.0 1.915 1.8555
5 1 0.0 0.0 3.711
6 1 1.915 1.915 3.711
7 2 1.915 0.0 5.5665
8 2 0.0 1.915 5.5665
9 1 0.0 0.0 7.422
10 1 1.915 1.915 7.422
11 2 1.915 0.0 9.2775
12 2 0.0 1.915 9.2775
13 1 0.0 0.0 11.133
14 1 1.915 1.915 11.133
15 2 1.915 0.0 12.9885
16 2 0.0 1.915 12.9885
17 1 0.0 0.0 14.844
18 1 1.915 1.915 14.844
19 2 1.915 0.0 16.6995
20 2 0.0 1.915 16.6995
21 1 0.0 0.0 18.555
22 1 1.915 1.915 18.555
23 2 1.915 0.0 20.4105
24 2 0.0 1.915 20.4105
25 1 0.0 0.0 22.266
26 1 1.915 1.915 22.266
27 2 1.915 0.0 24.1215
28 2 0.0 1.915 24.1215
29 1 0.0 0.0 25.977
30 1 1.915 1.915 25.977
31 2 1.915 0.0 27.8325
32 2 0.0 1.915 27.8325
33 1 0.0 0.0 29.688
34 1 1.915 1.915 29.688
35 2 1.915 0.0 31.5435
36 2 0.0 1.915 31.5435
37 1 0.0 0.0 33.399
38 1 1.915 1.915 33.399
39 2 1.915 0.0 35.2545
40 2 0.0 1.915 35.2545
41 1 0.0 3.83 0.0
42 1 1.915 5.745 0.0
43 2 1.915 3.83 1.8555
44 2 0.0 5.745 1.8555
45 1 0.0 3.83 3.711
46 1 1.915 5.745 3.711
47 2 1.915 3.83 5.5665
48 2 0.0 5.745 5.5665
49 1 0.0 3.83 7.422
50 1 1.915 5.745 7.422
51 2 1.915 3.83 9.2775
52 2 0.0 5.745 9.2775
53 1 0.0 3.83 11.133
54 1 1.915 5.745 11.133
55 2 1.915 3.83 12.9885
56 2 0.0 5.745 12.9885
57 1 0.0 3.83 14.844
58 1 1.915 5.745 14.844
59 2 1.915 3.83 16.6995
60 2 0.0 5.745 16.6995
61 1 0.0 3.83 18.555
62 1 1.915 5.745 18.555
63 2 1.915 3.83 20.4105
64 2 0.0 5.745 20.4105
65 1 0.0 3.83 22.266
66 1 1.915 5.745 22.266
67 2 1.915 3.83 24.1215
68 2 0.0 5.745 24.1215
69 1 0.0 3.83 25.977
70 1 1.915 5.745 25.977
71 2 1.915 3.83 27.8325
72 2 0.0 5.745 27.8325
73 1 0.0 3.83 29.688
74 1 1.915 5.745 29.688
75 2 1.915 3.83 31.5435
76 2 0.0 5.745 31.5435
77 1 0.0 3.83 33.399
78 1 1.915 5.745 33.399
79 2 1.915 3.83 35.2545
80 2 0.0 5.745 35.2545
81 1 0.0 7.66 0.0
82 1 1.915 9.575 0.0
83 2 1.915 7.66 1.8555
84 2 0.0 9.575 1.8555
85 1 0.0 7.66 3.711
86 1 1.915 9.575 3.711
87 2 1.915 7.66 5.5665
88 2 0.0 9.575 5.5665
89 1 0.0 7.66 7.422
90 1 1.915 9.575 7.422
91 2 1.915 7.66 9.2775
92 2 0.0 9.575 9.2775
93 1 0.0 7.66 11.133
94 1 1.915 9.575 11.133
95 2 1.915 7.66 12.9885
96 2 0.0 9.575 12.9885
97 1 0.0 7.66 14.844
98 1 1.915 9.575 14.844
99 2 1.915 7.66 16.6995
100 2 0.0 9.575 16.6995
101 1 0.0 7.66 18.555
102 1 1.915 9.575 18.555
103 2 1.915 7.66 20.4105
104 2 0.0 9.575 20.4105
105 1 0.0 7.66 22.266
106 1 1.915 9.575 22.266
107 2 1.915 7.66 24.1215
108 2 0.0 9.575 24.1215
109 1 0.0 7.66 25.977
110 1 1.915 9.575 25.977
111 2 1.915 7.66 27.8325
112 2 0.0 9.575 27.8325
113 1 0.0 7.66 29.688
114 1 1.915 9.575 29.688
115 2 1.915 7.66 31.5435
116 2 0.0 9.575 31.5435
117 1 0.0 7.66 33.399
118 1 1.915 9.575 33.399
119 2 1.915 7.66 35.2545
120 2 0.0 9.575 35.2545
121 1 0.0 11.49 0.0
122 1 1.915 13.405 0.0
123 2 1.915 11.49 1.8555
124 2 0.0 13.405 1.8555
125 1 0.0 11.49 3.711
126 1 1.915 13.405 3.711
127 2 1.915 11.49 5.5665
128 2 0.0 13.405 5.5665
129 1 0.0 11.49 7.422
130 1 1.915 13.405 7.422
131 2 1.915 11.49 9.2775
132 2 0.0 13.405 9.2775
133 1 0.0 11.49 11.133
134 1 1.915 13.405 11.133
135 2 1.915 11.49 12.9885
136 2 0.0 13.405 12.9885
137 1 0.0 11.49 14.844
138 1 1.915 13.405 14.844
139 2 1.915 11.49 16.6995
140 2 0.0 13.405 16.6995
141 1 0.0 11.49 18.555
142 1 1.915 13.405 18.555
143 2 1.915 11.49 20.4105
144 2 0.0 13.405 20.4105
145 1 0.0 11.49 22.266
146 1 1.915 13.405 22.266
147 2 1.915 11.49 24.1215
148 2 0.0 13.405 24.1215
149 1 0.0 11.49 25.977
150 1 1.915 13.405 25.977
151 2 1.915 11.49 27.8325
152 2 0.0 13.405 27.8325
153 1 0.0 11.49 29.688
154 1 1.915 13.405 29.688
155 2 1.915 11.49 31.5435
156 2 0.0 13.405 31.5435
157 1 0.0 11.49 33.399
158 1 1.915 13.405 33.399
159 2 1.915 11.49 35.2545
160 2 0.0 13.405 35.2545
161 1 0.0 15.32 0.0
162 1 1.915 17.235 0.0
163 2 1.915 15.32 1.8555
164 2 0.0 17.235 1.8555
165 1 0.0 15.32 3.711
166 1 1.915 17.235 3.711
167 2 1.915 15.32 5.5665
168 2 0.0 17.235 5.5665
169 1 0.0 15.32 7.422
170 1 1.915 17.235 7.422
171 2 1.915 15.32 9.2775
172 2 0.0 17.235 9.2775
173 1 0.0 15.32 11.133
174 1 1.915 17.235 11.133
175 2 1.915 15.32 12.9885
176 2 0.0 17.235 12.9885
177 1 0.0 15.32 14.844
178 1 1.915 17.235 14.844
179 2 1.915 15.32 16.6995
180 2 0.0 17.235 16.6995
181 1 0.0 15.32 18.555
182 1 1.915 17.235 18.555
183 2 1.915 15.32 20.4105
184 2 0.0 17.235 20.4105
185 1 0.0 15.32 22.266
186 1 1.915 17.235 22.266
187 2 1.915 15.32 24.1215
188 2 0.0 17.235 24.1215
189 1 0.0 15.32 25.977
190 1 1.915 17.235 25.977
191 2 1.915 15.32 27.8325
192 2 0.0 17.235 27.8325
193 1 0.0 15.32 29.688
194 1 1.915 17.235 29.688
195 2 1.915 15.32 31.5435
196 2 0.0 17.235 31.5435
197 1 0.0 15.32 33.399
198 1 1.915 17.235 33.399
199 2 1.915 15.32 35.2545
200 2 0.0 17.235 35.2545
201 1 0.0 19.15 0.0
202 1 1.915 21.065 0.0
203 2 1.915 19.15 1.8555
204 2 0.0 21.065 1.8555
205 1 0.0 19.15 3.711
206 1 1.915 21.065 3.711
207 2 1.915 19.15 5.5665
208 2 0.0 21.065 5.5665
209 1 0.0 19.15 7.422
210 1 1.915 21.065 7.422
211 2 1.915 19.15 9.2775
212 2 0.0 21.065 9.2775
213 1 0.0 19.15 11.133
214 1 1.915 21.065 11.133
215 2 1.915 19.15 12.9885
216 2 0.0 21.065 12.9885
217 1 0.0 19.15 14.844
218 1 1.915 21.065 14.844
219 2 1.915 19.15 16.6995
220 2 0.0 21.065 16.6995
221 1 0.0 19.15 18.555
222 1 1.915 21.065 18.555
223 2 1.915 19.15 20.4105
224 2 0.0 21.065 20.4105
225 1 0.0 19.15 22.266
226 1 1.915 21.065 22.266
227 2 1.915 19.15 24.1215
228 2 0.0 21.065 24.1215
229 1 0.0 19.15 25.977
230 1 1.915 21.065 25.977
231 2 1.915 19.15 27.8325
232 2 0.0 21.065 27.8325
233 1 0.0 19.15 29.688
234 1 1.915 21.065 29.688
235 2 1.915 19.15 31.5435
236 2 0.0 21.065 31.5435
237 1 0.0 19.15 33.399
238 1 1.915 21.065 33.399
239 2 1.915 19.15 35.2545
240 2 0.0 21.065 35.2545
241 1 0.0 22.98 0.0
242 1 1.915 24.895 0.0
243 2 1.915 22.98 1.8555
244 2 0.0 24.895 1.8555
245 1 0.0 22.98 3.711
246 1 1.915 24.895 3.711
247 2 1.915 22.98 5.5665
248 2 0.0 24.895 5.5665
249 1 0.0 22.98 7.422
250 1 1.915 24.895 7.422
251 2 1.915 22.98 9.2775
252 2 0.0 24.895 9.2775
253 1 0.0 22.98 11.133
254 1 1.915 24.895 11.133
255 2 1.915 22.98 12.9885
256 2 0.0 24.895 12.9885
257 1 0.0 22.98 14.844
258 1 1.915 24.895 14.844
259 2 1.915 22.98 16.6995
260 2 0.0 24.895 16.6995
261 1 0.0 22.98 18.555
262 1 1.915 24.895 18.555
263 2 1.915 22.98 20.4105
264 2 0.0 24.895 20.4105
265 1 0.0 22.98 22.266
266 1 1.915 24.895 22.266
267 2 1.915 22.98 24.1215
268 2 0.0 24.895 24.1215
269 1 0.0 22.98 25.977
270 1 1.915 24.895 25.977
271 2 1.915 22.98 27.8325
272 2 0.0 24.895 27.8325
273 1 0.0 22.98 29.688
274 1 1.915 24.895 29.688
275 2 1.915 22.98 31.5435
276 2 0.0 24.895 31.5435
277 1 0.0 22.98 33.399
278 1 1.915 24.895 33.399
279 2 1.915 22.98 35.2545
280 2 0.0 24.895 35.2545
281 1 0.0 26.81 0.0
282 1 1.915 28.725 0.0
283 2 1.915 26.81 1.8555
284 2 0.0 28.725 1.8555
285 1 0.0 26.81 3.711
286 1 1.915 28.725 3.711
287 2 1.915 26.81 5.5665
288 2 0.0 28.725 5.5665
289 1 0.0 26.81 7.422
290 1 1.915 28.725 7.422
291 2 1.915 26.81 9.2775
292 2 0.0 28.725 9.2775
293 1 0.0 26.81 11.133
294 1 1.915 28.725 11.133
295 2 1.915 26.81 12.9885
296 2 0.0 28.725 12.9885
297 1 0.0 26.81 14.844
298 1 1.915 28.725 14.844
299 2 1.915 26.81 16.6995
300 2 0.0 28.725 16.6995
301 1 0.0 26.81 18.555
302 1 1.915 28.725 18.555
303 2 1.915 26.81 20.4105
304 2 0.0 28.725 20.4105
305 1 0.0 26.81 22.266
306 1 1.915 28.725 22.266
307 2 1.915 26.81 24.1215
308 2 0.0 28.725 24.1215
309 1 0.0 26.81 25.977
310 1 1.915 28.725 25.977
311 2 1.915 26.81 27.8325
312 2 0.0 28.725 27.8325
313 1 0.0 26.81 29.688
314 1 1.915 28.725 29.688
315 2 1.915 26.81 31.5435
316 2 0.0 28.725 31.5435
317 1 0.0 26.81 33.399
318 1 1.915 28.725 33.399
319 2 1.915 26.81 35.2545
320 2 0.0 28.725 35.2545
321 1 0.0 30.64 0.0
322 1 1.915 32.555 0.0
323 2 1.915 30.64 1.8555
324 2 0.0 32.555 1.8555
325 1 0.0 30.64 3.711
326 1 1.915 32.555 3.711
327 2 1.915 30.64 5.5665
328 2 0.0 32.555 5.5665
329 1 0.0 30.64 7.422
330 1 1.915 32.555 7.422
331 2 1.915 30.64 9.2775
332 2 0.0 32.555 9.2775
333 1 0.0 30.64 11.133
334 1 1.915 32.555 11.133
335 2 1.915 30.64 12.9885
336 2 0.0 32.555 12.9885
337 1 0.0 30.64 14.844
338 1 1.915 32.555 14.844
339 2 1.915 30.64 16.6995
340 2 0.0 32.555 16.6995
341 1 0.0 30.64 18.555
342 1 1.915 32.555 18.555
343 2 1.915 30.64 20.4105
344 2 0.0 32.555 20.4105
345 1 0.0 30.64 22.266
346 1 1.915 32.555 22.266
347 2 1.915 30.64 24.1215
348 2 0.0 32.555 24.1215
349 1 0.0 30.64 25.977
350 1 1.915 32.555 25.977
351 2 1.915 30.64 27.8325
352 2 0.0 32.555 27.8325
353 1 0.0 30.64 29.688
354 1 1.915 32.555 29.688
355 2 1.915 30.64 31.5435
356 2 0.0 32.555 31.5435
357 1 0.0 30.64 33.399
358 1 1.915 32.555 33.399
359 2 1.915 30.64 35.2545
360 2 0.0 32.555 35.2545
361 1 0.0 34.47 0.0
362 1 1.915 36.385 0.0
363 2 1.915 34.47 1.8555
364 2 0.0 36.385 1.8555
365 1 0.0 34.47 3.711
366 1 1.915 36.385 3.711
367 2 1.915 34.47 5.5665
368 2 0.0 36.385 5.5665
369 1 0.0 34.47 7.422
370 1 1.915 36.385 7.422
371 2 1.915 34.47 9.2775
372 2 0.0 36.385 9.2775
373 1 0.0 34.47 11.133
374 1 1.915 36.385 11.133
375 2 1.915 34.47 12.9885
376 2 0.0 36.385 12.9885
377 1 0.0 34.47 14.844
378 1 1.915 36.385 14.844
379 2 1.915 34.47 16.6995
380 2 0.0 36.385 16.6995
381 1 0.0 34.47 18.555
382 1 1.915 36.385 18.555
383 2 1.915 34.47 20.4105
384 2 0.0 36.385 20.4105
385 1 0.0 34.47 22.266
386 1 1.915 36.385 22.266
387 2 1.915 34.47 24.1215
388 2 0.0 36.385 24.1215
389 1 0.0 34.47 25.977
390 1 1.915 36.385 25.977
391 2 1.915 34.47 27.8325
392 2 0.0 36.385 27.8325
393 1 0.0 34.47 29.688
394 1 1.915 36.385 29.688
395 2 1.915 34.47 31.5435
396 2 0.0 36.385 31.5435
397 1 0.0 34.47 33.399
398 1 1.915 36.385 33.399
399 2 1.915 34.47 35.2545
400 2 0.0 36.385 35.2545
401 1 3.83 0.0 0.0
402 1 5.745 1.915 0.0
403 2 5.745 0.0 1.8555
404 2 3.83 1.915 1.8555
405 1 3.83 0.0 3.711
406 1 5.745 1.915 3.711
407 2 5.745 0.0 5.5665
408 2 3.83 1.915 5.5665
409 1 3.83 0.0 7.422
410 1 5.745 1.915 7.422
411 2 5.745 0.0 9.2775
412 2 3.83 1.915 9.2775
413 1 3.83 0.0 11.133
414 1 5.745 1.915 11.133
415 2 5.745 0.0 12.9885
416 2 3.83 1.915 12.9885
417 1 3.83 0.0 14.844
418 1 5.745 1.915 14.844
419 2 5.745 0.0 16.6995
420 2 3.83 1.915 16.6995
421 1 3.83 0.0 18.555
422 1 5.745 1.915 18.555
423 2 5.745 0.0 20.4105
424 2 3.83 1.915 20.4105
425 1 3.83 0.0 22.266
426 1 5.745 1.915 22.266
427 2 5.745 0.0 24.1215
428 2 3.83 1.915 24.1215
429 1 3.83 0.0 25.977
430 1 5.745 1.915 25.977
431 2 5.745 0.0 27.8325
432 2 3.83 1.915 27.8325
433 1 3.83 0.0 29.688
434 1 5.745 1.915 29.688
435 2 5.745 0.0 31.5435
436 2 3.83 1.915 31.5435
437 1 3.83 0.0 33.399
438 1 5.745 1.915 33.399
439 2 5.745 0.0 35.2545
440 2 3.83 1.915 35.2545
441 1 3.83 3.83 0.0
442 1 5.745 5.745 0.0
443 2 5.745 3.83 1.8555
444 2 3.83 5.745 1.8555
445 1 3.83 3.83 3.711
446 1 5.745 5.745 3.711
447 2 5.745 3.83 5.5665
448 2 3.83 5.745 5.5665
449 1 3.83 3.83 7.422
450 1 5.745 5.745 7.422
451 2 5.745 3.83 9.2775
452 2 3.83 5.745 9.2775
453 1 3.83 3.83 11.133
454 1 5.745 5.745 11.133
455 2 5.745 3.83 12.9885
456 2 3.83 5.745 12.9885
457 1 3.83 3.83 14.844
458 1 5.745 5.745 14.844
459 2 5.745 3.83 16.6995
460 2 3.83 5.745 16.6995
461 1 3.83 3.83 18.555
462 1 5.745 5.745 18.555
463 2 5.745 3.83 20.4105
464 2 3.83 5.745 20.4105
465 1 3.83 3.83 22.266
466 1 5.745 5.745 22.266
467 2 5.745 3.83 24.1215
468 2 3.83 5.745 24.1215
469 1 3.83 3.83 25.977
470 1 5.745 5.745 25.977
471 2 5.745 3.83 27.8325
472 2 3.83 5.745 27.8325
473 1 3.83 3.83 29.688
474 1 5.745 5.745 29.688
475 2 5.745 3.83 31.5435
476 2 3.83 5.745 31.5435
477 1 3.83 3.83 33.399
478 1 5.745 5.745 33.399
479 2 5.745 3.83 35.2545
480 2 3.83 5.745 35.2545
481 1 3.83 7.66 0.0
482 1 5.745 9.575 0.0
483 2 5.745 7.66 1.8555
484 2 3.83 9.575 1.8555
485 1 3.83 7.66 3.711
486 1 5.745 9.575 3.711
487 2 5.745 7.66 5.5665
488 2 3.83 9.575 5.5665
489 1 3.83 7.66 7.422
490 1 5.745 9.575 7.422
491 2 5.745 7.66 9.2775
492 2 3.83 9.575 9.2775
493 1 3.83 7.66 11.133
494 1 5.745 9.575 11.133
495 2 5.745 7.66 12.9885
496 2 3.83 9.575 12.9885
497 1 3.83 7.66 14.844
498 1 5.745 9.575 14.844
499 2 5.745 7.66 16.6995
500 2 3.83 9.575 16.6995
501 1 3.83 7.66 18.555
502 1 5.745 9.575 18.555
503 2 5.745 7.66 20.4105
504 2 3.83 9.575 20.4105
505 1 3.83 7.66 22.266
506 1 5.745 9.575 22.266
507 2 5.745 7.66 24.1215
508 2 3.83 9.575 24.1215
509 1 3.83 7.66 25.977
510 1 5.745 9.575 25.977
511 2 5.745 7.66 27.8325
512 2 3.83 9.575 27.8325
513 1 3.83 7.66 29.688
514 1 5.745 9.575 29.688
515 2 5.745 7.66 31.5435
516 2 3.83 9.575 31.5435
517 1 3.83 7.66 33.399
518 1 5.745 9.575 33.399
519 2 5.745 7.66 35.2545
520 2 3.83 9.575 35.2545
521 1 3.83 11.49 0.0
522 1 5.745 13.405 0.0
523 2 5.745 11.49 1.8555
524 2 3.83 13.405 1.8555
525 1 3.83 11.49 3.711
526 1 5.745 13.405 3.711
527 2 5.745 11.49 5.5665
528 2 3.83 13.405 5.5665
529 1 3.83 11.49 7.422
530 1 5.745 13.405 7.422
531 2 5.745 11.49 9.2775
532 2 3.83 13.405 9.2775
533 1 3.83 11.49 11.133
534 1 5.745 13.405 11.133
535 2 5.745 11.49 12.9885
536 2 3.83 13.405 12.9885
537 1 3.83 11.49 14.844
538 1 5.745 13.405 14.844
539 2 5.745 11.49 16.6995
540 2 3.83 13.405 16.6995
541 1 3.83 11.49 18.555
542 1 5.745 13.405 18.555
543 2 5.745 11.49 20.4105
544 2 3.83 13.405 20.4105
545 1 3.83 11.49 22.266
546 1 5.745 13.405 22.266
547 2 5.745 11.49 24.1215
548 2 3.83 13.405 24.1215
549 1 3.83 11.49 25.977
550 1 5.745 13.405 25.977
551 2 5.745 11.49 27.8325
552 2 3.83 13.405 27.8325
553 1 3.83 11.49 29.688
554 1 5.745 13.405 29.688
555 2 5.745 11.49 31.5435
556 2 3.83 13.405 31.5435
557 1 3.83 11.49 33.399
558 1 5.745 13.405 33.399
559 2 5.745 11.49 35.2545
560 2 3.83 13.405 35.2545
561 1 3.83 15.32 0.0
562 1 5.745 17.235 0.0
563 2 5.745 15.32 1.8555
564 2 3.83 17.235 1.8555
565 1 3.83 15.32 3.711
566 1 5.745 17.235 3.711
567 2 5.745 15.32 5.5665
568 2 3.83 17.235 5.5665
569 1 3.83 15.32 7.422
570 1 5.745 17.235 7.422
571 2 5.745 15.32 9.2775
572 2 3.83 17.235 9.2775
573 1 3.83 15.32 11.133
574 1 5.745 17.235 11.133
575 2 5.745 15.32 12.9885
576 2 3.83 17.235 12.9885
577 1 3.83 15.32 14.844
578 1 5.745 17.235 14.844
579 2 5.745 15.32 16.6995
580 2 3.83 17.235 16.6995
581 1 3.83 15.32 18.555
582 1 5.745 17.235 18.555
583 2 5.745 15.32 20.4105
584 2 3.83 17.235 20.4105
585 1 3.83 15.32 22.266
586 1 5.745 17.235 22.266
587 2 5.745 15.32 24.1215
588 2 3.83 17.235 24.1215
589 1 3.83 15.32 25.977
590 1 5.745 17.235 25.977
591 2 5.745 15.32 27.8325
592 2 3.83 17.235 27.8325
593 1 3.83 15.32 29.688
594 1 5.745 17.235 29.688
595 2 5.745 15.32 31.5435
596 2 3.83 17.235 31.5435
597 1 3.83 15.32 33.399
598 1 5.745 17.235 33.399
599 2 5.745 15.32 35.2545
600 2 3.83 17.235 35.2545
601 1 3.83 19.15 0.0
602 1 5.745 21.065 0.0
603 2 5.745 19.15 1.8555
604 2 3.83 21.065 1.8555
605 1 3.83 19.15 3.711
606 1 5.745 21.065 3.711
607 2 5.745 19.15 5.5665
608 2 3.83 21.065 5.5665
609 1 3.83 19.15 7.422
610 1 5.745 21.065 7.422
611 2 5.745 19.15 9.2775
612 2 3.83 21.065 9.2775
613 1 3.83 19.15 11.133
614 1 5.745 21.065 11.133
615 2 5.745 19.15 12.9885
616 2 3.83 21.065 12.9885
617 1 3.83 19.15 14.844
618 1 5.745 21.065 14.844
619 2 5.745 19.15 16.6995
620 2 3.83 21.065 16.6995
621 1 3.83 19.15 18.555
622 1 5.745 21.065 18.555
623 2 5.745 19.15 20.4105
624 2 3.83 21.065 20.4105
625 1 3.83 19.15 22.266
626 1 5.745 21.065 22.266
627 2 5.745 19.15 24.1215
628 2 3.83 21.065 24.1215
629 1 3.83 19.15 25.977
630 1 5.745 21.065 25.977
631 2 5.745 19.15 27.8325
632 2 3.83 21.065 27.8325
633 1 3.83 19.15 29.688
634 1 5.745 21.065 29.688
635 2 5.745 19.15 31.5435
636 2 3.83 21.065 31.5435
637 1 3.83 19.15 33.399
638 1 5.745 21.065 33.399
639 2 5.745 19.15 35.2545
640 2 3.83 21.065 35.2545
641 1 3.83 22.98 0.0
642 1 5.745 24.895 0.0
643 2 5.745 22.98 1.8555
644 2 3.83 24.895 1.8555
645 1 3.83 22.98 3.711
646 1 5.745 24.895 3.711
647 2 5.745 22.98 5.5665
648 2 3.83 24.895 5.5665
649 1 3.83 22.98 7.422
650 1 5.745 24.895 7.422
651 2 5.745 22.98 9.2775
652 2 3.83 24.895 9.2775
653 1 3.83 22.98 11.133
654 1 5.745 24.895 11.133
655 2 5.745 22.98 12.9885
656 2 3.83 24.895 12.9885
657 1 3.83 22.98 14.844
658 1 5.745 24.895 14.844
659 2 5.745 22.98 16.6995
660 2 3.83 24.895 16.6995
661 1 3.83 22.98 18.555
662 1 5.745 24.895 18.555
663 2 5.745 22.98 20.4105
664 2 3.83 24.895 20.4105
665 1 3.83 22.98 22.266
666 1 5.745 24.895 22.266
667 2 5.745 22.98 24.1215
668 2 3.83 24.895 24.1215
669 1 3.83 22.98 25.977
670 1 5.745 24.895 25.977
671 2 5.745 22.98 27.8325
672 2 3.83 24.895 27.8325
673 1 3.83 22.98 29.688
674 1 5.745 24.895 29.688
675 2 5.745 22.98 31.5435
676 2 3.83 24.895 31.5435
677 1 3.83 22.98 33.399
678 1 5.745 24.895 33.399
679 2 5.745 22.98 35.2545
680 2 3.83 24.895 35.2545
681 1 3.83 26.81 0.0
682 1 5.745 28.725 0.0
683 2 5.745 26.81 1.8555
684 2 3.83 28.725 1.8555
685 1 3.83 26.81 3.711
686 1 5.745 28.725 3.711
687 2 5.745 26.81 5.5665
688 2 3.83 28.725 5.5665
689 1 3.83 26.81 7.422
690 1 5.745 28.725 7.422
691 2 5.745 26.81 9.2775
692 2 3.83 28.725 9.2775
693 1 3.83 26.81 11.133
694 1 5.745 28.725 11.133
695 2 5.745 26.81 12.9885
696 2 3.83 28.725 12.9885
697 1 3.83 26.81 14.844
698 1 5.745 28.725 14.844
699 2 5.745 26.81 16.6995
700 2 3.83 28.725 16.6995
701 1 3.83 26.81 18.555
702 1 5.745 28.725 18.555
703 2 5.745 26.81 20.4105
704 2 3.83 28.725 20.4105
705 1 3.83 26.81 22.266
706 1 5.745 28.725 22.266
707 2 5.745 26.81 24.1215
708 2 3.83 28.725 24.1215
709 1 3.83 26.81 25.977
710 1 5.745 28.725 25.977
711 2 5.745 26.81 27.8325
712 2 3.83 28.725 27.8325
713 1 3.83 26.81 29.688
714 1 5.745 28.725 29.688
715 2 5.745 26.81 31.5435
716 2 3.83 28.725 31.5435
717 1 3.83 26.81 33.399
718 1 5.745 28.725 33.399
719 2 5.745 26.81 35.2545
720 2 3.83 28.725 35.2545
721 1 3.83 30.64 0.0
722 1 5.745 32.555 0.0
723 2 5.745 30.64 1.8555
724 2 3.83 32.555 1.8555
725 1 3.83 30.64 3.711
726 1 5.745 32.555 3.711
727 2 5.745 30.64 5.5665
728 2 3.83 32.555 5.5665
729 1 3.83 30.64 7.422
730 1 5.745 32.555 7.422
731 2 5.745 30.64 9.2775
732 2 3.83 32.555 9.2775
733 1 3.83 30.64 11.133
734 1 5.745 32.555 11.133
735 2 5.745 30.64 12.9885
736 2 3.83 32.555 12.9885
737 1 3.83 30.64 14.844
738 1 5.745 32.555 14.844
739 2 5.745 30.64 16.6995
740 2 3.83 32.555 16.6995
741 1 3.83 30.64 18.555
742 1 5.745 32.555 18.555
743 2 5.745 30.64 20.4105
744 2 3.83 32.555 20.4105
745 1 3.83 30.64 22.266
746 1 5.745 32.555 22.266
747 2 5.745 30.64 24.1215
748 2 3.83 32.555 24.1215
749 1 3.83 30.64 25.977
750 1 5.745 32.555 25.977
751 2 5.745 30.64 27.8325
752 2 3.83 32.555 27.8325
753 1 3.83 30.64 29.688
754 1 5.745 32.555 29.688
755 2 5.745 30.64 31.5435
756 2 3.83 32.555 31.5435
757 1 3.83 30.64 33.399
758 1 5.745 32.555 33.399
759 2 5.745 30.64 35.2545
760 2 3.83 32.555 35.2545
761 1 3.83 34.47 0.0
762 1 5.745 36.385 0.0
763 2 5.745 34.47 1.8555
764 2 3.83 36.385 1.8555
765 1 3.83 34.47 3.711
766 1 5.745 36.385 3.711
767 2 5.745 34.47 5.5665
768 2 3.83 36.385 5.5665
769 1 3.83 34.47 7.422
770 1 5.745 36.385 7.422
771 2 5.745 34.47 9.2775
772 2 3.83 36.385 9.2775
773 1 3.83 34.47 11.133
774 1 5.745 36.385 11.133
775 2 5.745 34.47 12.9885
776 2 3.83 36.385 12.9885
777 1 3.83 34.47 14.844
778 1 5.745 36.385 14.844
779 2 5.745 34.47 16.6995
780 2 3.83 36.385 16.6995
781 1 3.83 34.47 18.555
782 1 5.745 36.385 18.555
783 2 5.745 34.47 20.4105
784 2 3.83 36.385 20.4105
785 1 3.83 34.47 22.266
786 1 5.745 36.385 22.266
787 2 5.745 34.47 24.1215
788 2 3.83 36.385 24.1215
789 1 3.83 34.47 25.977
790 1 5.745 36.385 25.977
791 2 5.745 34.47 27.8325
792 2 3.83 36.385 27.8325
793 1 3.83 34.47 29.688
794 1 5.745 36.385 29.688
795 2 5.745 34.47 31.5435
796 2 3.83 36.385 31.5435
797 1 3.83 34.47 33.399
798 1 5.745 36.385 33.399
799 2 5.745 34.47 35.2545
800 2 3.83 36.385 35.2545
801 1 7.66 0.0 0.0
802 1 9.575 1.915 0.0
803 2 9.575 0.0 1.8555
804 2 7.66 1.915 1.8555
805 1 7.66 0.0 3.711
806 1 9.575 1.915 3.711
807 2 9.575 0.0 5.5665
808 2 7.66 1.915 5.5665
809 1 7.66 0.0 7.422
810 1 9.575 1.915 7.422
811 2 9.575 0.0 9.2775
812 2 7.66 1.915 9.2775
813 1 7.66 0.0 11.133
814 1 9.575 1.915 11.133
815 2 9.575 0.0 12.9885
816 2 7.66 1.915 12.9885
817 1 7.66 0.0 14.844
818 1 9.575 1.915 14.844
819 2 9.575 0.0 16.6995
820 2 7.66 1.915 16.6995
821 1 7.66 0.0 18.555
822 1 9.575 1.915 18.555
823 2 9.575 0.0 20.4105
824 2 7.66 1.915 20.4105
825 1 7.66 0.0 22.266
826 1 9.575 1.915 22.266
827 2 9.575 0.0 24.1215
828 2 7.66 1.915 24.1215
829 1 7.66 0.0 25.977
830 1 9.575 1.915 25.977
831 2 9.575 0.0 27.8325
832 2 7.66 1.915 27.8325
833 1 7.66 0.0 29.688
834 1 9.575 1.915 29.688
835 2 9.575 0.0 31.5435
836 2 7.66 1.915 31.5435
837 1 7.66 0.0 33.399
838 1 9.575 1.915 33.399
839 2 9.575 0.0 35.2545
840 2 7.66 1.915 35.2545
841 1 7.66 3.83 0.0
842 1 9.575 5.745 0.0
843 2 9.575 3.83 1.8555
844 2 7.66 5.745 1.8555
845 1 7.66 3.83 3.711
846 1 9.575 5.745 3.711
847 2 9.575 3.83 5.5665
848 2 7.66 5.745 5.5665
849 1 7.66 3.83 7.422
850 1 9.575 5.745 7.422
851 2 9.575 3.83 9.2775
852 2 7.66 5.745 9.2775
853 1 7.66 3.83 11.133
854 1 9.575 5.745 11.133
855 2 9.575 3.83 12.9885
856 2 7.66 5.745 12.9885
857 1 7.66 3.83 14.844
858 1 9.575 5.745 14.844
859 2 9.575 3.83 16.6995
860 2 7.66 5.745 16.6995
861 1 7.66 3.83 18.555
862 1 9.575 5.745 18.555
863 2 9.575 3.83 20.4105
864 2 7.66 5.745 20.4105
865 1 7.66 3.83 22.266
866 1 9.575 5.745 22.266
867 2 9.575 3.83 24.1215
868 2 7.66 5.745 24.1215
869 1 7.66 3.83 25.977
870 1 9.575 5.745 25.977
871 2 9.575 3.83 27.8325
872 2 7.66 5.745 27.8325
873 1 7.66 3.83 29.688
874 1 9.575 5.745 29.688
875 2 9.575 3.83 31.5435
876 2 7.66 5.745 31.5435
877 1 7.66 3.83 33.399
878 1 9.575 5.745 33.399
879 2 9.575 3.83 35.2545
880 2 7.66 5.745 35.2545
881 1 7.66 7.66 0.0
882 1 9.575 9.575 0.0
883 2 9.575 7.66 1.8555
884 2 7.66 9.575 1.8555
885 1 7.66 7.66 3.711
886 1 9.575 9.575 3.711
887 2 9.575 7.66 5.5665
888 2 7.66 9.575 5.5665
889 1 7.66 7.66 7.422
890 1 9.575 9.575 7.422
891 2 9.575 7.66 9.2775
892 2 7.66 9.575 9.2775
893 1 7.66 7.66 11.133
894 1 9.575 9.575 11.133
895 2 9.575 7.66 12.9885
896 2 7.66 9.575 12.9885
897 1 7.66 7.66 14.844
898 1 9.575 9.575 14.844
899 2 9.575 7.66 16.6995
900 2 7.66 9.575 16.6995
901 1 7.66 7.66 18.555
902 1 9.575 9.575 18.555
903 2 9.575 7.66 20.4105
904 2 7.66 9.575 20.4105
905 1 7.66 7.66 22.266
906 1 9.575 9.575 22.266
907 2 9.575 7.66 24.1215
908 2 7.66 9.575 24.1215
909 1 7.66 7.66 25.977
910 1 9.575 9.575 25.977
911 2 9.575 7.66 27.8325
912 2 7.66 9.575 27.8325
913 1 7.66 7.66 29.688
914 1 9.575 9.575 29.688
915 2 9.575 7.66 31.5435
916 2 7.66 9.575 31.5435
917 1 7.66 7.66 33.399
918 1 9.575 9.575 33.399
919 2 9.575 7.66 35.2545
920 2 7.66 9.575 35.2545
921 1 7.66 11.49 0.0
922 1 9.575 13.405 0.0
923 2 9.575 11.49 1.8555
924 2 7.66 13.405 1.8555
925 1 7.66 11.49 3.711
926 1 9.575 13.405 3.711
927 2 9.575 11.49 5.5665
928 2 7.66 13.405 5.5665
929 1 7.66 11.49 7.422
930 1 9.575 13.405 7.422
931 2 9.575 11.49 9.2775
932 2 7.66 13.405 9.2775
933 1 7.66 11.49 11.133
934 1 9.575 13.405 11.133
935 2 9.575 11.49 12.9885
936 2 7.66 13.405 12.9885
937 1 7.66 11.49 14.844
938 1 9.575 13.405 14.844
939 2 9.575 11.49 16.6995
940 2 7.66 13.405 16.6995
941 1 7.66 11.49 18.555
942 1 9.575 13.405 18.555
943 2 9.575 11.49 20.4105
944 2 7.66 13.405 20.4105
945 1 7.66 11.49 22.266
946 1 9.575 13.405 22.266
947 2 9.575 11.49 24.1215
948 2 7.66 13.405 24.1215
949 1 7.66 11.49 25.977
950 1 9.575 13.405 25.977
951 2 9.575 11.49 27.8325
952 2 7.66 13.405 27.8325
953 1 7.66 11.49 29.688
954 1 9.575 13.405 29.688
955 2 9.575 11.49 31.5435
956 2 7.66 13.405 31.5435
957 1 7.66 11.49 33.399
958 1 9.575 13.405 33.399
959 2 9.575 11.49 35.2545
960 2 7.66 13.405 35.2545
961 1 7.66 15.32 0.0
962 1 9.575 17.235 0.0
963 2 9.575 15.32 1.8555
964 2 7.66 17.235 1.8555
965 1 7.66 15.32 3.711
966 1 9.575 17.235 3.711
967 2 9.575 15.32 5.5665
968 2 7.66 17.235 5.5665
969 1 7.66 15.32 7.422
970 1 9.575 17.235 7.422
971 2 9.575 15.32 9.2775
972 2 7.66 17.235 9.2775
973 1 7.66 15.32 11.133
974 1 9.575 17.235 11.133
975 2 9.575 15.32 12.9885
976 2 7.66 17.235 12.9885
977 1 7.66 15.32 14.844
978 1 9.575 17.235 14.844
979 2 9.575 15.32 16.6995
980 2 7.66 17.235 16.6995
981 1 7.66 15.32 18.555
982 1 9.575 17.235 18.555
983 2 9.575 15.32 20.4105
984 2 7.66 17.235 20.4105
985 1 7.66 15.32 22.266
986 1 9.575 17.235 22.266
987 2 9.575 15.32 24.1215
988 2 7.66 17.235 24.1215
989 1 7.66 15.32 25.977
990 1 9.575 17.235 25.977
991 2 9.575 15.32 27.8325
992 2 7.66 17.235 27.8325
993 1 7.66 15.32 29.688
994 1 9.575 17.235 29.688
995 2 9.575 15.32 31.5435
996 2 7.66 17.235 31.5435
997 1 7.66 15.32 33.399
998 1 9.575 17.235 33.399
999 2 9.575 15.32 35.2545
1000 2 7.66 17.235 35.2545
1001 1 7.66 19.15 0.0
1002 1 9.575 21.065 0.0
1003 2 9.575 19.15 1.8555
1004 2 7.66 21.065 1.8555
1005 1 7.66 19.15 3.711
1006 1 9.575 21.065 3.711
1007 2 9.575 19.15 5.5665
1008 2 7.66 21.065 5.5665
1009 1 7.66 19.15 7.422
1010 1 9.575 21.065 7.422
1011 2 9.575 19.15 9.2775
1012 2 7.66 21.065 9.2775
1013 1 7.66 19.15 11.133
1014 1 9.575 21.065 11.133
1015 2 9.575 19.15 12.9885
1016 2 7.66 21.065 12.9885
1017 1 7.66 19.15 14.844
1018 1 9.575 21.065 14.844
1019 2 9.575 19.15 16.6995
1020 2 7.66 21.065 16.6995
1021 1 7.66 19.15 18.555
1022 1 9.575 21.065 18.555
1023 2 9.575 19.15 20.4105
1024 2 7.66 21.065 20.4105
1025 1 7.66 19.15 22.266
1026 1 9.575 21.065 22.266
1027 2 9.575 19.15 24.1215
1028 2 7.66 21.065 24.1215
1029 1 7.66 19.15 25.977
1030 1 9.575 21.065 25.977
1031 2 9.575 19.15 27.8325
1032 2 7.66 21.065 27.8325
1033 1 7.66 19.15 29.688
1034 1 9.575 21.065 29.688
1035 2 9.575 19.15 31.5435
1036 2 7.66 21.065 31.5435
1037 1 7.66 19.15 33.399
1038 1 9.575 21.065 33.399
1039 2 9.575 19.15 35.2545
1040 2 7.66 21.065 35.2545
1041 1 7.66 22.98 0.0
1042 1 9.575 24.895 0.0
1043 2 9.575 22.98 1.8555
1044 2 7.66 24.895 1.8555
1045 1 7.66 22.98 3.711
1046 1 9.575 24.895 3.711
1047 2 9.575 22.98 5.5665
1048 2 7.66 24.895 5.5665
1049 1 7.66 22.98 7.422
1050 1 9.575 24.895 7.422
1051 2 9.575 22.98 9.2775
1052 2 7.66 24.895 9.2775
1053 1 7.66 22.98 11.133
1054 1 9.575 24.895 11.133
1055 2 9.575 22.98 12.9885
1056 2 7.66 24.895 12.9885
1057 1 7.66 22.98 14.844
1058 1 9.575 24.895 14.844
1059 2 9.575 22.98 16.6995
1060 2 7.66 24.895 16.6995
1061 1 7.66 22.98 18.555
1062 1 9.575 24.895 18.555
1063 2 9.575 22.98 20.4105
1064 2 7.66 24.895 20.4105
1065 1 7.66 22.98 22.266
1066 1 9.575 24.895 22.266
1067 2 9.575 22.98 24.1215
1068 2 7.66 24.895 24.1215
1069 1 7.66 22.98 25.977
1070 1 9.575 24.895 25.977
1071 2 9.575 22.98 27.8325
1072 2 7.66 24.895 27.8325
1073 1 7.66 22.98 29.688
1074 1 9.575 24.895 29.688
1075 2 9.575 22.98 31.5435
1076 2 7.66 24.895 31.5435
1077 1 7.66 22.98 33.399
1078 1 9.575 24.895 33.399
1079 2 9.575 22.98 35.2545
1080 2 7.66 24.895 35.2545
1081 1 7.66 26.81 0.0
1082 1 9.575 28.725 0.0
1083 2 9.575 26.81 1.8555
1084 2 7.66 28.725 1.8555
1085 1 7.66 26.81 3.711
1086 1 9.575 28.725 3.711
1087 2 9.575 26.81 5.5665
1088 2 7.66 28.725 5.5665
1089 1 7.66 26.81 7.422
1090 1 9.575 28.725 7.422
1091 2 9.575 26.81 9.2775
1092 2 7.66 28.725 9.2775
1093 1 7.66 26.81 11.133
1094 1 9.575 28.725 11.133
1095 2 9.575 26.81 12.9885
1096 2 7.66 28.725 12.9885
1097 1 7.66 26.81 14.844
1098 1 9.575 28.725 14.844
1099 2 9.575 26.81 16.6995
1100 2 7.66 28.725 16.6995
1101 1 7.66 26.81 18.555
1102 1 9.575 28.725 18.555
1103 2 9.575 26.81 20.4105
1104 2 7.66 28.725 20.4105
1105 1 7.66 26.81 22.266
1106 1 9.575 28.725 22.266
1107 2 9.575 26.81 24.1215
1108 2 7.66 28.725 24.1215
1109 1 7.66 26.81 25.977
1110 1 9.575 28.725 25.977
1111 2 9.575 26.81 27.8325
1112 2 7.66 28.725 27.8325
1113 1 7.66 26.81 29.688
1114 1 9.575 28.725 29.688
1115 2 9.575 26.81 31.5435
1116 2 7.66 28.725 31.5435
1117 1 7.66 26.81 33.399
1118 1 9.575 28.725 33.399
1119 2 9.575 26.81 35.2545
1120 2 7.66 28.725 35.2545
1121 1 7.66 30.64 0.0
1122 1 9.575 32.555 0.0
1123 2 9.575 30.64 1.8555
1124 2 7.66 32.555 1.8555
1125 1 7.66 30.64 3.711
1126 1 9.575 32.555 3.711
1127 2 9.575 30.64 5.5665
1128 2 7.66 32.555 5.5665
1129 1 7.66 30.64 7.422
1130 1 9.575 32.555 7.422
1131 2 9.575 30.64 9.2775
1132 2 7.66 32.555 9.2775
1133 1 7.66 30.64 11.133
1134 1 9.575 32.555 11.133
1135 2 9.575 30.64 12.9885
1136 2 7.66 32.555 12.9885
1137 1 7.66 30.64 14.844
1138 1 9.575 32.555 14.844
1139 2 9.575 30.64 16.6995
1140 2 7.66 32.555 16.6995
1141 1 7.66 30.64 18.555
1142 1 9.575 32.555 18.555
1143 2 9.575 30.64 20.4105
1144 2 7.66 32.555 20.4105
1145 1 7.66 30.64 22.266
1146 1 9.575 32.555 22.266
1147 2 9.575 30.64 24.1215
1148 2 7.66 32.555 24.1215
1149 1 7.66 30.64 25.977
1150 1 9.575 32.555 25.977
1151 2 9.575 30.64 27.8325
1152 2 7.66 32.555 27.8325
1153 1 7.66 30.64 29.688
1154 1 9.575 32.555 29.688
1155 2 9.575 30.64 31.5435
1156 2 7.66 32.555 31.5435
1157 1 7.66 30.64 33.399
1158 1 9.575 32.555 33.399
1159 2 9.575 30.64 35.2545
1160 2 7.66 32.555 35.2545
1161 1 7.66 34.47 0.0
1162 1 9.575 36.385 0.0
1163 2 9.575 34.47 1.8555
1164 2 7.66 36.385 1.8555
1165 1 7.66 34.47 3.711
1166 1 9.575 36.385 3.711
1167 2 9.575 34.47 5.5665
1168 2 7.66 36.385 5.5665
1169 1 7.66 34.47 7.422
1170 1 9.575 36.385 7.422
1171 2 9.575 34.47 9.2775
1172 2 7.66 36.385 9.2775
1173 1 7.66 34.47 11.133
1174 1 9.575 36.385 11.133
1175 2 9.575 34.47 12.9885
1176 2 7.66 36.385 12.9885
1177 1 7.66 34.47 14.844
1178 1 9.575 36.385 14.844
1179 2 9.575 34.47 16.6995
1180 2 7.66 36.385 16.6995
1181 1 7.66 34.47 18.555
1182 1 9.575 36.385 18.555
1183 2 9.575 34.47 20.4105
1184 2 7.66 36.385 20.4105
1185 1 7.66 34.47 22.266
1186 1 9.575 36.385 22.266
1187 2 9.575 34.47 24.1215
1188 2 7.66 36.385 24.1215
1189 1 7.66 34.47 25.977
1190 1 9.575 36.385 25.977
1191 2 9.575 34.47 27.8325
1192 2 7.66 36.385 27.8325
1193 1 7.66 34.47 29.688
1194 1 9.575 36.385 29.688
1195 2 9.575 34.47 31.5435
1196 2 7.66 36.385 31.5435
1197 1 7.66 34.47 33.399
1198 1 9.575 36.385 33.399
1199 2 9.575 34.47 35.2545
1200 2 7.66 36.385 35.2545
1201 1 11.49 0.0 0.0
1202 1 13.405 1.915 0.0
1203 2 13.405 0.0 1.8555
1204 2 11.49 1.915 1.8555
1205 1 11.49 0.0 3.711
1206 1 13.405 1.915 3.711
1207 2 13.405 0.0 5.5665
1208 2 11.49 1.915 5.5665
1209 1 11.49 0.0 7.422
1210 1 13.405 1.915 7.422
1211 2 13.405 0.0 9.2775