FePt grain test

19871	atoms
2	atom types
0.0	114.900000	xlo xhi
0.0	114.900000	ylo yhi
0.0	111.330000	zlo zhi
0.0	0.0	0.0	 xy xz yz

Atoms

1	1	57.450000	55.535000	1.855500
2	1	55.535000	57.450000	1.855500
3	2	57.450000	57.450000	0.000000
4	1	59.365000	57.450000	1.855500
5	1	57.450000	59.365000	1.855500
6	1	57.450000	51.705000	5.566500
7	2	55.535000	55.535000	3.711000
8	1	55.535000	53.620000	5.566500
9	1	53.620000	55.535000	5.566500
10	2	57.450000	53.620000	3.711000
11	2	59.365000	55.535000	3.711000
12	1	59.365000	53.620000	5.566500
13	1	57.450000	55.535000	5.566500
14	1	61.280000	55.535000	5.566500
15	1	51.705000	57.450000	5.566500
16	2	53.620000	57.450000	3.711000
17	2	55.535000	59.365000	3.711000
18	1	55.535000	57.450000	5.566500
19	1	53.620000	59.365000	5.566500
20	2	57.450000	57.450000	3.711000
21	2	59.365000	59.365000	3.711000
22	1	59.365000	57.450000	5.566500
23	1	57.450000	59.365000	5.566500
24	2	61.280000	57.450000	3.711000
25	1	63.195000	57.450000	5.566500
26	1	61.280000	59.365000	5.566500
27	1	55.535000	61.280000	5.566500
28	2	57.450000	61.280000	3.711000
29	1	59.365000	61.280000	5.566500
30	1	57.450000	63.195000	5.566500
31	1	57.450000	47.875000	9.277500
32	2	55.535000	51.705000	7.422000
33	1	55.535000	49.790000	9.277500
34	1	53.620000	51.705000	9.277500
35	2	57.450000	49.790000	7.422000
36	2	59.365000	51.705000	7.422000
37	1	59.365000	49.790000	9.277500
38	1	57.450000	51.705000	9.277500
39	1	61.280000	51.705000	9.277500
40	2	51.705000	55.535000	7.422000
41	1	51.705000	53.620000	9.277500
42	1	49.790000	55.535000	9.277500
43	2	53.620000	53.620000	7.422000
44	2	55.535000	55.535000	7.422000
45	1	55.535000	53.620000	9.277500
46	1	53.620000	55.535000	9.277500
47	2	57.450000	53.620000	7.422000
48	2	59.365000	55.535000	7.422000
49	1	59.365000	53.620000	9.277500
50	1	57.450000	55.535000	9.277500
51	2	61.280000	53.620000	7.422000
52	2	63.195000	55.535000	7.422000
53	1	63.195000	53.620000	9.277500
54	1	61.280000	55.535000	9.277500
55	1	65.110000	55.535000	9.277500
56	1	47.875000	57.450000	9.277500
57	2	49.790000	57.450000	7.422000
58	2	51.705000	59.365000	7.422000
59	1	51.705000	57.450000	9.277500
60	1	49.790000	59.365000	9.277500
61	2	53.620000	57.450000	7.422000
62	2	55.535000	59.365000	7.422000
63	1	55.535000	57.450000	9.277500
64	1	53.620000	59.365000	9.277500
65	2	57.450000	57.450000	7.422000
66	2	59.365000	59.365000	7.422000
67	1	59.365000	57.450000	9.277500
68	1	57.450000	59.365000	9.277500
69	2	61.280000	57.450000	7.422000
70	2	63.195000	59.365000	7.422000
71	1	63.195000	57.450000	9.277500
72	1	61.280000	59.365000	9.277500
73	2	65.110000	57.450000	7.422000
74	1	67.025000	57.450000	9.277500
75	1	65.110000	59.365000	9.277500
76	1	51.705000	61.280000	9.277500
77	2	53.620000	61.280000	7.422000
78	2	55.535000	63.195000	7.422000
79	1	55.535000	61.280000	9.277500
80	1	53.620000	63.195000	9.277500
81	2	57.450000	61.280000	7.422000
82	2	59.365000	63.195000	7.422000
83	1	59.365000	61.280000	9.277500
84	1	57.450000	63.195000	9.277500
85	2	61.280000	61.280000	7.422000
86	1	63.195000	61.280000	9.277500
87	1	61.280000	63.195000	9.277500
88	1	55.535000	65.110000	9.277500
89	2	57.450000	65.110000	7.422000
90	1	59.365000	65.110000	9.277500
91	1	57.450000	67.025000	9.277500
92	1	57.450000	44.045000	12.988500
93	2	55.535000	47.875000	11.133000
94	1	55.535000	45.960000	12.988500
95	1	53.620000	47.875000	12.988500
96	2	57.450000	45.960000	11.133000
97	2	59.365000	47.875000	11.133000
98	1	59.365000	45.960000	12.988500
99	1	57.450000	47.875000	12.988500
100	1	61.280000	47.875000	12.988500
101	2	51.705000	51.705000	11.133000
102	1	51.705000	49.790000	12.988500
103	1	49.790000	51.705000	12.988500
104	2	53.620000	49.790000	11.133000
105	2	55.535000	51.705000	11.133000
106	1	55.535000	49.790000	12.988500
107	1	53.620000	51.705000	12.988500
108	2	57.450000	49.790000	11.133000
109	2	59.365000	51.705000	11.133000
110	1	59.365000	49.790000	12.988500
111	1	57.450000	51.705000	12.988500
112	2	61.280000	49.790000	11.133000
113	2	63.195000	51.705000	11.133000
114	1	63.195000	49.790000	12.988500
115	1	61.280000	51.705000	12.988500
116	1	65.110000	51.705000	12.988500
117	2	47.875000	55.535000	11.133000
118	1	47.875000	53.620000	12.988500
119	1	45.960000	55.535000	12.988500
120	2	49.790000	53.620000	11.133000
121	2	51.705000	55.535000	11.133000
122	1	51.705000	53.620000	12.988500
123	1	49.790000	55.535000	12.988500
124	2	53.620000	53.620000	11.133000
125	2	55.535000	55.535000	11.133000
126	1	55.535000	53.620000	12.988500
127	1	53.620000	55.535000	12.988500
128	2	57.450000	53.620000	11.133000
129	2	59.365000	55.535000	11.133000
130	1	59.365000	53.620000	12.988500
131	1	57.450000	55.535000	12.988500
132	2	61.280000	53.620000	11.133000
133	2	63.195000	55.535000	11.133000
134	1	63.195000	53.620000	12.988500
135	1	61.280000	55.535000	12.988500
136	2	65.110000	53.620000	11.133000
137	2	67.025000	55.535000	11.133000
138	1	67.025000	53.620000	12.988500
139	1	65.110000	55.535000	12.988500
140	1	68.940000	55.535000	12.988500
141	1	44.045000	57.450000	12.988500
142	2	45.960000	57.450000	11.133000
143	2	47.875000	59.365000	11.133000
144	1	47.875000	57.450000	12.988500
145	1	45.960000	59.365000	12.988500
146	2	49.790000	57.450000	11.133000
147	2	51.705000	59.365000	11.133000
148	1	51.705000	57.450000	12.988500
149	1	49.790000	59.365000	12.988500
150	2	53.620000	57.450000	11.133000
151	2	55.535000	59.365000	11.133000
152	1	55.535000	57.450000	12.988500
153	1	53.620000	59.365000	12.988500
154	2	57.450000	57.450000	11.133000
155	2	59.365000	59.365000	11.133000
156	1	59.365000	57.450000	12.988500
157	1	57.450000	59.365000	12.988500
158	2	61.280000	57.450000	11.133000
159	2	63.195000	59.365000	11.133000
160	1	63.195000	57.450000	12.988500
161	1	61.280000	59.365000	12.988500
162	2	65.110000	57.450000	11.133000
163	2	67.025000	59.365000	11.133000
164	1	67.025000	57.450000	12.988500
165	1	65.110000	59.365000	12.988500
166	2	68.940000	57.450000	11.133000
167	1	70.855000	57.450000	12.988500
168	1	68.940000	59.365000	12.988500
169	1	47.875000	61.280000	12.988500
170	2	49.790000	61.280000	11.133000
171	2	51.705000	63.195000	11.133000
172	1	51.705000	61.280000	12.988500
173	1	49.790000	63.195000	12.988500
174	2	53.620000	61.280000	11.133000
175	2	55.535000	63.195000	11.133000
176	1	55.535000	61.280000	12.988500
177	1	53.620000	63.195000	12.988500
178	2	57.450000	61.280000	11.133000
179	2	59.365000	63.195000	11.133000
180	1	59.365000	61.280000	12.988500
181	1	57.450000	63.195000	12.988500
182	2	61.280000	61.280000	11.133000
183	2	63.195000	63.195000	11.133000
184	1	63.195000	61.280000	12.988500
185	1	61.280000	63.195000	12.988500
186	2	65.110000	61.280000	11.133000
187	1	67.025000	61.280000	12.988500
188	1	65.110000	63.195000	12.988500
189	1	51.705000	65.110000	12.988500
190	2	53.620000	65.110000	11.133000
191	2	55.535000	67.025000	11.133000
192	1	55.535000	65.110000	12.988500
193	1	53.620000	67.025000	12.988500
194	2	57.450000	65.110000	11.133000
195	2	59.365000	67.025000	11.133000
196	1	59.365000	65.110000	12.988500
197	1	57.450000	67.025000	12.988500
198	2	61.280000	65.110000	11.133000
199	1	63.195000	65.110000	12.988500
200	1	61.280000	67.025000	12.988500
201	1	55.535000	68.940000	12.988500
202	2	57.450000	68.940000	11.133000
203	1	59.365000	68.940000	12.988500
204	1	57.450000	70.855000	12.988500
205	1	57.450000	40.215000	16.699500
206	2	55.535000	44.045000	14.844000
207	1	55.535000	42.130000	16.699500
208	1	53.620000	44.045000	16.699500
209	2	57.450000	42.130000	14.844000
210	2	59.365000	44.045000	14.844000
211	1	59.365000	42.130000	16.699500
212	1	57.450000	44.045000	16.699500
213	1	61.280000	44.045000	16.699500
214	2	51.705000	47.875000	14.844000
215	1	51.705000	45.960000	16.699500
216	1	49.790000	47.875000	16.699500
217	2	53.620000	45.960000	14.844000
218	2	55.535000	47.875000	14.844000
219	1	55.535000	45.960000	16.699500
220	1	53.620000	47.875000	16.699500
221	2	57.450000	45.960000	14.844000
222	2	59.365000	47.875000	14.844000
223	1	59.365000	45.960000	16.699500
224	1	57.450000	47.875000	16.699500
225	2	61.280000	45.960000	14.844000
226	2	63.195000	47.875000	14.844000
227	1	63.195000	45.960000	16.699500
228	1	61.280000	47.875000	16.699500
229	1	65.110000	47.875000	16.699500
230	2	47.875000	51.705000	14.844000
231	1	47.875000	49.790000	16.699500
232	1	45.960000	51.705000	16.699500
233	2	49.790000	49.790000	14.844000
234	2	51.705000	51.705000	14.844000
235	1	51.705000	49.790000	16.699500
236	1	49.790000	51.705000	16.699500
237	2	53.620000	49.790000	14.844000
238	2	55.535000	51.705000	14.844000
239	1	55.535000	49.790000	16.699500
240	1	53.620000	51.705000	16.699500
241	2	57.450000	49.790000	14.844000
242	2	59.365000	51.705000	14.844000
243	1	59.365000	49.790000	16.699500
244	1	57.450000	51.705000	16.699500
245	2	61.280000	49.790000	14.844000
246	2	63.195000	51.705000	14.844000
247	1	63.195000	49.790000	16.699500
248	1	61.280000	51.705000	16.699500
249	2	65.110000	49.790000	14.844000
250	2	67.025000	51.705000	14.844000
251	1	67.025000	49.790000	16.699500
252	1	65.110000	51.705000	16.699500
253	1	68.940000	51.705000	16.699500
254	2	44.045000	55.535000	14.844000
255	1	44.045000	53.620000	16.699500
256	1	42.130000	55.535000	16.699500
257	2	45.960000	53.620000	14.844000
258	2	47.875000	55.535000	14.844000
259	1	47.875000	53.620000	16.699500
260	1	45.960000	55.535000	16.699500
261	2	49.790000	53.620000	14.844000
262	2	51.705000	55.535000	14.844000
263	1	51.705000	53.620000	16.699500
264	1	49.790000	55.535000	16.699500
265	2	53.620000	53.620000	14.844000
266	2	55.535000	55.535000	14.844000
267	1	55.535000	53.620000	16.699500
268	1	53.620000	55.535000	16.699500
269	2	57.450000	53.620000	14.844000
270	2	59.365000	55.535000	14.844000
271	1	59.365000	53.620000	16.699500
272	1	57.450000	55.535000	16.699500
273	2	61.280000	53.620000	14.844000
274	2	63.195000	55.535000	14.844000
275	1	63.195000	53.620000	16.699500
276	1	61.280000	55.535000	16.699500
277	2	65.110000	53.620000	14.844000
278	2	67.025000	55.535000	14.844000
279	1	67.025000	53.620000	16.699500
280	1	65.110000	55.535000	16.699500
281	2	68.940000	53.620000	14.844000
282	2	70.855000	55.535000	14.844000
283	1	70.855000	53.620000	16.699500
284	1	68.940000	55.535000	16.699500
285	1	72.770000	55.535000	16.699500
286	1	40.215000	57.450000	16.699500
287	2	42.130000	57.450000	14.844000
288	2	44.045000	59.365000	14.844000
289	1	44.045000	57.450000	16.699500
290	1	42.130000	59.365000	16.699500
291	2	45.960000	57.450000	14.844000
292	2	47.875000	59.365000	14.844000
293	1	47.875000	57.450000	16.699500
294	1	45.960000	59.365000	16.699500
295	2	49.790000	57.450000	14.844000
296	2	51.705000	59.365000	14.844000
297	1	51.705000	57.450000	16.699500
298	1	49.790000	59.365000	16.699500
299	2	53.620000	57.450000	14.844000
300	2	55.535000	59.365000	14.844000
301	1	55.535000	57.450000	16.699500
302	1	53.620000	59.365000	16.699500
303	2	57.450000	57.450000	14.844000
304	2	59.365000	59.365000	14.844000
305	1	59.365000	57.450000	16.699500
306	1	57.450000	59.365000	16.699500
307	2	61.280000	57.450000	14.844000
308	2	63.195000	59.365000	14.844000
309	1	63.195000	57.450000	16.699500
310	1	61.280000	59.365000	16.699500
311	2	65.110000	57.450000	14.844000
312	2	67.025000	59.365000	14.844000
313	1	67.025000	57.450000	16.699500
314	1	65.110000	59.365000	16.699500
315	2	68.940000	57.450000	14.844000
316	2	70.855000	59.365000	14.844000
317	1	70.855000	57.450000	16.699500
318	1	68.940000	59.365000	16.699500
319	2	72.770000	57.450000	14.844000
320	1	74.685000	57.450000	16.699500
321	1	72.770000	59.365000	16.699500
322	1	44.045000	61.280000	16.699500
323	2	45.960000	61.280000	14.844000
324	2	47.875000	63.195000	14.844000
325	1	47.875000	61.280000	16.699500
326	1	45.960000	63.195000	16.699500
327	2	49.790000	61.280000	14.844000
328	2	51.705000	63.195000	14.844000
329	1	51.705000	61.280000	16.699500
330	1	49.790000	63.195000	16.699500
331	2	53.620000	61.280000	14.844000
332	2	55.535000	63.195000	14.844000
333	1	55.535000	61.280000	16.699500
334	1	53.620000	63.195000	16.699500
335	2	57.450000	61.280000	14.844000
336	2	59.365000	63.195000	14.844000
337	1	59.365000	61.280000	16.699500
338	1	57.450000	63.195000	16.699500
339	2	61.280000	61.280000	14.844000
340	2	63.195000	63.195000	14.844000
341	1	63.195000	61.280000	16.699500
342	1	61.280000	63.195000	16.699500
343	2	65.110000	61.280000	14.844000
344	2	67.025000	63.195000	14.844000
345	1	67.025000	61.280000	16.699500
346	1	65.110000	63.195000	16.699500
347	2	68.940000	61.280000	14.844000
348	1	70.855000	61.280000	16.699500
349	1	68.940000	63.195000	16.699500
350	1	47.875000	65.110000	16.699500
351	2	49.790000	65.110000	14.844000
352	2	51.705000	67.025000	14.844000
353	1	51.705000	65.110000	16.699500
354	1	49.790000	67.025000	16.699500
355	2	53.620000	65.110000	14.844000
356	2	55.535000	67.025000	14.844000
357	1	55.535000	65.110000	16.699500
358	1	53.620000	67.025000	16.699500
359	2	57.450000	65.110000	14.844000
360	2	59.365000	67.025000	14.844000
361	1	59.365000	65.110000	16.699500
362	1	57.450000	67.025000	16.699500
363	2	61.280000	65.110000	14.844000
364	2	63.195000	67.025000	14.844000
365	1	63.195000	65.110000	16.699500
366	1	61.280000	67.025000	16.699500
367	2	65.110000	65.110000	14.844000
368	1	67.025000	65.110000	16.699500
369	1	65.110000	67.025000	16.699500
370	1	51.705000	68.940000	16.699500
371	2	53.620000	68.940000	14.844000
372	2	55.535000	70.855000	14.844000
373	1	55.535000	68.940000	16.699500
374	1	53.620000	70.855000	16.699500
375	2	57.450000	68.940000	14.844000
376	2	59.365000	70.855000	14.844000
377	1	59.365000	68.940000	16.699500
378	1	57.450000	70.855000	16.699500
379	2	61.280000	68.940000	14.844000
380	1	63.195000	68.940000	16.699500
381	1	61.280000	70.855000	16.699500
382	1	55.535000	72.770000	16.699500
383	2	57.450000	72.770000	14.844000
384	1	59.365000	72.770000	16.699500
385	1	57.450000	74.685000	16.699500
386	1	57.450000	36.385000	20.410500
387	2	55.535000	40.215000	18.555000
388	1	55.535000	38.300000	20.410500
389	1	53.620000	40.215000	20.410500
390	2	57.450000	38.300000	18.555000
391	2	59.365000	40.215000	18.555000
392	1	59.365000	38.300000	20.410500
393	1	57.450000	40.215000	20.410500
394	1	61.280000	40.215000	20.410500
395	2	51.705000	44.045000	18.555000
396	1	51.705000	42.130000	20.410500
397	1	49.790000	44.045000	20.410500
398	2	53.620000	42.130000	18.555000
399	2	55.535000	44.045000	18.555000
400	1	55.535000	42.130000	20.410500
401	1	53.620000	44.045000	20.410500
402	2	57.450000	42.130000	18.555000
403	2	59.365000	44.045000	18.555000
404	1	59.365000	42.130000	20.410500
405	1	57.450000	44.045000	20.410500
406	2	61.280000	42.130000	18.555000
407	2	63.195000	44.045000	18.555000
408	1	63.195000	42.130000	20.410500
409	1	61.280000	44.045000	20.410500
410	1	65.110000	44.045000	20.410500
411	2	47.875000	47.875000	18.555000
412	1	47.875000	45.960000	20.410500
413	1	45.960000	47.875000	20.410500
414	2	49.790000	45.960000	18.555000
415	2	51.705000	47.875000	18.555000
416	1	51.705000	45.960000	20.410500
417	1	49.790000	47.875000	20.410500
418	2	53.620000	45.960000	18.555000
419	2	55.535000	47.875000	18.555000
420	1	55.535000	45.960000	20.410500
421	1	53.620000	47.875000	20.410500
422	2	57.450000	45.960000	18.555000
423	2	59.365000	47.875000	18.555000
424	1	59.365000	45.960000	20.410500
425	1	57.450000	47.875000	20.410500
426	2	61.280000	45.960000	18.555000
427	2	63.195000	47.875000	18.555000
428	1	63.195000	45.960000	20.410500
429	1	61.280000	47.875000	20.410500
430	2	65.110000	45.960000	18.555000
431	2	67.025000	47.875000	18.555000
432	1	67.025000	45.960000	20.410500
433	1	65.110000	47.875000	20.410500
434	1	68.940000	47.875000	20.410500
435	2	44.045000	51.705000	18.555000
436	1	44.045000	49.790000	20.410500
437	1	42.130000	51.705000	20.410500
438	2	45.960000	49.790000	18.555000
439	2	47.875000	51.705000	18.555000
440	1	47.875000	49.790000	20.410500
441	1	45.960000	51.705000	20.410500
442	2	49.790000	49.790000	18.555000
443	2	51.705000	51.705000	18.555000
444	1	51.705000	49.790000	20.410500
445	1	49.790000	51.705000	20.410500
446	2	53.620000	49.790000	18.555000
447	2	55.535000	51.705000	18.555000
448	1	55.535000	49.790000	20.410500
449	1	53.620000	51.705000	20.410500
450	2	57.450000	49.790000	18.555000
451	2	59.365000	51.705000	18.555000
452	1	59.365000	49.790000	20.410500
453	1	57.450000	51.705000	20.410500
454	2	61.280000	49.790000	18.555000
455	2	63.195000	51.705000	18.555000
456	1	63.195000	49.790000	20.410500
457	1	61.280000	51.705000	20.410500
458	2	65.110000	49.790000	18.555000
459	2	67.025000	51.705000	18.555000
460	1	67.025000	49.790000	20.410500
461	1	65.110000	51.705000	20.410500
462	2	68.940000	49.790000	18.555000
463	2	70.855000	51.705000	18.555000
464	1	70.855000	49.790000	20.410500
465	1	68.940000	51.705000	20.410500
466	1	72.770000	51.705000	20.410500
467	2	40.215000	55.535000	18.555000
468	1	40.215000	53.620000	20.410500
469	1	38.300000	55.535000	20.410500
470	2	42.130000	53.620000	18.555000
471	2	44.045000	55.535000	18.555000
472	1	44.045000	53.620000	20.410500
473	1	42.130000	55.535000	20.410500
474	2	45.960000	53.620000	18.555000
475	2	47.875000	55.535000	18.555000
476	1	47.875000	53.620000	20.410500
477	1	45.960000	55.535000	20.410500
478	2	49.790000	53.620000	18.555000
479	2	51.705000	55.535000	18.555000
480	1	51.705000	53.620000	20.410500
481	1	49.790000	55.535000	20.410500
482	2	53.620000	53.620000	18.555000
483	2	55.535000	55.535000	18.555000
484	1	55.535000	53.620000	20.410500
485	1	53.620000	55.535000	20.410500
486	2	57.450000	53.620000	18.555000
487	2	59.365000	55.535000	18.555000
488	1	59.365000	53.620000	20.410500
489	1	57.450000	55.535000	20.410500
490	2	61.280000	53.620000	18.555000
491	2	63.195000	55.535000	18.555000
492	1	63.195000	53.620000	20.410500
493	1	61.280000	55.535000	20.410500
494	2	65.110000	53.620000	18.555000
495	2	67.025000	55.535000	18.555000
496	1	67.025000	53.620000	20.410500
497	1	65.110000	55.535000	20.410500
498	2	68.940000	53.620000	18.555000
499	2	70.855000	55.535000	18.555000
500	1	70.855000	53.620000	20.410500
501	1	68.940000	55.535000	20.410500
502	2	72.770000	53.620000	18.555000
503	2	74.685000	55.535000	18.555000
504	1	74.685000	53.620000	20.410500
505	1	72.770000	55.535000	20.410500
506	1	76.600000	55.535000	20.410500
507	1	36.385000	57.450000	20.410500
508	2	38.300000	57.450000	18.555000
509	2	40.215000	59.365000	18.555000
510	1	40.215000	57.450000	20.410500
511	1	38.300000	59.365000	20.410500
512	2	42.130000	57.450000	18.555000
513	2	44.045000	59.365000	18.555000
514	1	44.045000	57.450000	20.410500
515	1	42.130000	59.365000	20.410500
516	2	45.960000	57.450000	18.555000
517	2	47.875000	59.365000	18.555000
518	1	47.875000	57.450000	20.410500
519	1	45.960000	59.365000	20.410500
520	2	49.790000	57.450000	18.555000
521	2	51.705000	59.365000	18.555000
522	1	51.705000	57.450000	20.410500
523	1	49.790000	59.365000	20.410500
524	2	53.620000	57.450000	18.555000
525	2	55.535000	59.365000	18.555000
526	1	55.535000	57.450000	20.410500
527	1	53.620000	59.365000	20.410500
528	2	57.450000	57.450000	18.555000
529	2	59.365000	59.365000	18.555000
530	1	59.365000	57.450000	20.410500
531	1	57.450000	59.365000	20.410500
532	2	61.280000	57.450000	18.555000
533	2	63.195000	59.365000	18.555000
534	1	63.195000	57.450000	20.410500
535	1	61.280000	59.365000	20.410500
536	2	65.110000	57.450000	18.555000
537	2	67.025000	59.365000	18.555000
538	1	67.025000	57.450000	20.410500
539	1	65.110000	59.365000	20.410500
540	2	68.940000	57.450000	18.555000
541	2	70.855000	59.365000	18.555000
542	1	70.855000	57.450000	20.410500
543	1	68.940000	59.365000	20.410500
544	2	72.770000	57.450000	18.555000
545	2	74.685000	59.365000	18.555000
546	1	74.685000	57.450000	20.410500
547	1	72.770000	59.365000	20.410500
548	2	76.600000	57.450000	18.555000
549	1	78.515000	57.450000	20.410500
550	1	76.600000	59.365000	20.410500
551	1	40.215000	61.280000	20.410500
552	2	42.130000	61.280000	18.555000
553	2	44.045000	63.195000	18.555000
554	1	44.045000	61.280000	20.410500
555	1	42.130000	63.195000	20.410500
556	2	45.960000	61.280000	18.555000
557	2	47.875000	63.195000	18.555000
558	1	47.875000	61.280000	20.410500
559	1	45.960000	63.195000	20.410500
560	2	49.790000	61.280000	18.555000
561	2	51.705000	63.195000	18.555000
562	1	51.705000	61.280000	20.410500
563	1	49.790000	63.195000	20.410500
564	2	53.620000	61.280000	18.555000
565	2	55.535000	63.195000	18.555000
566	1	55.535000	61.280000	20.410500
567	1	53.620000	63.195000	20.410500
568	2	57.450000	61.280000	18.555000
569	2	59.365000	63.195000	18.555000
570	1	59.365000	61.280000	20.410500
571	1	57.450000	63.195000	20.410500
572	2	61.280000	61.280000	18.555000
573	2	63.195000	63.195000	18.555000
574	1	63.195000	61.280000	20.410500
575	1	61.280000	63.195000	20.410500
576	2	65.110000	61.280000	18.555000
577	2	67.025000	63.195000	18.555000
578	1	67.025000	61.280000	20.410500
579	1	65.110000	63.195000	20.410500
580	2	68.940000	61.280000	18.555000
581	2	70.855000	63.195000	18.555000
582	1	70.855000	61.280000	20.410500
583	1	68.940000	63.195000	20.410500
584	2	72.770000	61.280000	18.555000
585	1	74.685000	61.280000	20.410500
586	1	72.770000	63.195000	20.410500
587	1	44.045000	65.110000	20.410500
588	2	45.960000	65.110000	18.555000
589	2	47.875000	67.025000	18.555000
590	1	47.875000	65.110000	20.410500
591	1	45.960000	67.025000	20.410500
592	2	49.790000	65.110000	18.555000
593	2	51.705000	67.025000	18.555000
594	1	51.705000	65.110000	20.410500
595	1	49.790000	67.025000	20.410500
596	2	53.620000	65.110000	18.555000
597	2	55.535000	67.025000	18.555000
598	1	55.535000	65.110000	20.410500
599	1	53.620000	67.025000	20.410500
600	2	57.450000	65.110000	18.555000
601	2	59.365000	67.025000	18.555000
602	1	59.365000	65.110000	20.410500
603	1	57.450000	67.025000	20.410500
604	2	61.280000	65.110000	18.555000
605	2	63.195000	67.025000	18.555000
606	1	63.195000	65.110000	20.410500
607	1	61.280000	67.025000	20.410500
608	2	65.110000	65.110000	18.555000
609	2	67.025000	67.025000	18.555000
610	1	67.025000	65.110000	20.410500
611	1	65.110000	67.025000	20.410500
612	2	68.940000	65.110000	18.555000
613	1	70.855000	65.110000	20.410500
614	1	68.940000	67.025000	20.410500
615	1	47.875000	68.940000	20.410500
616	2	49.790000	68.940000	18.555000
617	2	51.705000	70.855000	18.555000
618	1	51.705000	68.940000	20.410500
619	1	49.790000	70.855000	20.410500
620	2	53.620000	68.940000	18.555000
621	2	55.535000	70.855000	18.555000
622	1	55.535000	68.940000	20.410500
623	1	53.620000	70.855000	20.410500
624	2	57.450000	68.940000	18.555000
625	2	59.365000	70.855000	18.555000
626	1	59.365000	68.940000	20.410500
627	1	57.450000	70.855000	20.410500
628	2	61.280000	68.940000	18.555000
629	2	63.195000	70.855000	18.555000
630	1	63.195000	68.940000	20.410500
631	1	61.280000	70.855000	20.410500
632	2	65.110000	68.940000	18.555000
633	1	67.025000	68.940000	20.410500
634	1	65.110000	70.855000	20.410500
635	1	51.705000	72.770000	20.410500
636	2	53.620000	72.770000	18.555000
637	2	55.535000	74.685000	18.555000
638	1	55.535000	72.770000	20.410500
639	1	53.620000	74.685000	20.410500
640	2	57.450000	72.770000	18.555000
641	2	59.365000	74.685000	18.555000
642	1	59.365000	72.770000	20.410500
643	1	57.450000	74.685000	20.410500
644	2	61.280000	72.770000	18.555000
645	1	63.195000	72.770000	20.410500
646	1	61.280000	74.685000	20.410500
647	1	55.535000	76.600000	20.410500
648	2	57.450000	76.600000	18.555000
649	1	59.365000	76.600000	20.410500
650	1	57.450000	78.515000	20.410500
651	1	57.450000	32.555000	24.121500
652	2	55.535000	36.385000	22.266000
653	1	55.535000	34.470000	24.121500
654	1	53.620000	36.385000	24.121500
655	2	57.450000	34.470000	22.266000
656	2	59.365000	36.385000	22.266000
657	1	59.365000	34.470000	24.121500
658	1	57.450000	36.385000	24.121500
659	1	61.280000	36.385000	24.121500
660	2	51.705000	40.215000	22.266000
661	1	51.705000	38.300000	24.121500
662	1	49.790000	40.215000	24.121500
663	2	53.620000	38.300000	22.266000
664	2	55.535000	40.215000	22.266000
665	1	55.535000	38.300000	24.121500
666	1	53.620000	40.215000	24.121500
667	2	57.450000	38.300000	22.266000
668	2	59.365000	40.215000	22.266000
669	1	59.365000	38.300000	24.121500
670	1	57.450000	40.215000	24.121500
671	2	61.280000	38.300000	22.266000
672	2	63.195000	40.215000	22.266000
673	1	63.195000	38.300000	24.121500
674	1	61.280000	40.215000	24.121500
675	1	65.110000	40.215000	24.121500
676	2	47.875000	44.045000	22.266000
677	1	47.875000	42.130000	24.121500
678	1	45.960000	44.045000	24.121500
679	2	49.790000	42.130000	22.266000
680	2	51.705000	44.045000	22.266000
681	1	51.705000	42.130000	24.121500
682	1	49.790000	44.045000	24.121500
683	2	53.620000	42.130000	22.266000
684	2	55.535000	44.045000	22.266000
685	1	55.535000	42.130000	24.121500
686	1	53.620000	44.045000	24.121500
687	2	57.450000	42.130000	22.266000
688	2	59.365000	44.045000	22.266000
689	1	59.365000	42.130000	24.121500
690	1	57.450000	44.045000	24.121500
691	2	61.280000	42.130000	22.266000
692	2	63.195000	44.045000	22.266000
693	1	63.195000	42.130000	24.121500
694	1	61.280000	44.045000	24.121500
695	2	65.110000	42.130000	22.266000
696	2	67.025000	44.045000	22.266000
697	1	67.025000	42.130000	24.121500
698	1	65.110000	44.045000	24.121500
699	1	68.940000	44.045000	24.121500
700	2	44.045000	47.875000	22.266000
701	1	44.045000	45.960000	24.121500
702	1	42.130000	47.875000	24.121500
703	2	45.960000	45.960000	22.266000
704	2	47.875000	47.875000	22.266000
705	1	47.875000	45.960000	24.121500
706	1	45.960000	47.875000	24.121500
707	2	49.790000	45.960000	22.266000
708	2	51.705000	47.875000	22.266000
709	1	51.705000	45.960000	24.121500
710	1	49.790000	47.875000	24.121500
711	2	53.620000	45.960000	22.266000
712	2	55.535000	47.875000	22.266000
713	1	55.535000	45.960000	24.121500
714	1	53.620000	47.875000	24.121500
715	2	57.450000	45.960000	22.266000
716	2	59.365000	47.875000	22.266000
717	1	59.365000	45.960000	24.121500
718	1	57.450000	47.875000	24.121500
719	2	61.280000	45.960000	22.266000
720	2	63.195000	47.875000	22.266000
721	1	63.195000	45.960000	24.121500
722	1	61.280000	47.875000	24.121500
723	2	65.110000	45.960000	22.266000
724	2	67.025000	47.875000	22.266000
725	1	67.025000	45.960000	24.121500
726	1	65.110000	47.875000	24.121500
727	2	68.940000	45.960000	22.266000
728	2	70.855000	47.875000	22.266000
729	1	70.855000	45.960000	24.121500
730	1	68.940000	47.875000	24.121500
731	1	72.770000	47.875000	24.121500
732	2	40.215000	51.705000	22.266000
733	1	40.215000	49.790000	24.121500
734	1	38.300000	51.705000	24.121500
735	2	42.130000	49.790000	22.266000
736	2	44.045000	51.705000	22.266000
737	1	44.045000	49.790000	24.121500
738	1	42.130000	51.705000	24.121500
739	2	45.960000	49.790000	22.266000
740	2	47.875000	51.705000	22.266000
741	1	47.875000	49.790000	24.121500
742	1	45.960000	51.705000	24.121500
743	2	49.790000	49.790000	22.266000
744	2	51.705000	51.705000	22.266000
745	1	51.705000	49.790000	24.121500
746	1	49.790000	51.705000	24.121500
747	2	53.620000	49.790000	22.266000
748	2	55.535000	51.705000	22.266000
749	1	55.535000	49.790000	24.121500
750	1	53.620000	51.705000	24.121500
751	2	57.450000	49.790000	22.266000
752	2	59.365000	51.705000	22.266000
753	1	59.365000	49.790000	24.121500
754	1	57.450000	51.705000	24.121500
755	2	61.280000	49.790000	22.266000
756	2	63.195000	51.705000	22.266000
757	1	63.195000	49.790000	24.121500
758	1	61.280000	51.705000	24.121500
759	2	65.110000	49.790000	22.266000
760	2	67.025000	51.705000	22.266000
761	1	67.025000	49.790000	24.121500
762	1	65.110000	51.705000	24.121500
763	2	68.940000	49.790000	22.266000
764	2	70.855000	51.705000	22.266000
765	1	70.855000	49.790000	24.121500
766	1	68.940000	51.705000	24.121500
767	2	72.770000	49.790000	22.266000
768	2	74.685000	51.705000	22.266000
769	1	74.685000	49.790000	24.121500
770	1	72.770000	51.705000	24.121500
771	1	76.600000	51.705000	24.121500
772	2	36.385000	55.535000	22.266000
773	1	36.385000	53.620000	24.121500
774	1	34.470000	55.535000	24.121500
775	2	38.300000	53.620000	22.266000
776	2	40.215000	55.535000	22.266000
777	1	40.215000	53.620000	24.121500
778	1	38.300000	55.535000	24.121500
779	2	42.130000	53.620000	22.266000
780	2	44.045000	55.535000	22.266000
781	1	44.045000	53.620000	24.121500
782	1	42.130000	55.535000	24.121500
783	2	45.960000	53.620000	22.266000
784	2	47.875000	55.535000	22.266000
785	1	47.875000	53.620000	24.121500
786	1	45.960000	55.535000	24.121500
787	2	49.790000	53.620000	22.266000
788	2	51.705000	55.535000	22.266000
789	1	51.705000	53.620000	24.121500
790	1	49.790000	55.535000	24.121500
791	2	53.620000	53.620000	22.266000
792	2	55.535000	55.535000	22.266000
793	1	55.535000	53.620000	24.121500
794	1	53.620000	55.535000	24.121500
795	2	57.450000	53.620000	22.266000
796	2	59.365000	55.535000	22.266000
797	1	59.365000	53.620000	24.121500
798	1	57.450000	55.535000	24.121500
799	2	61.280000	53.620000	22.266000
800	2	63.195000	55.535000	22.266000
801	1	63.195000	53.620000	24.121500
802	1	61.280000	55.535000	24.121500
803	2	65.110000	53.620000	22.266000
804	2	67.025000	55.535000	22.266000
805	1	67.025000	53.620000	24.121500
806	1	65.110000	55.535000	24.121500
807	2	68.940000	53.620000	22.266000
808	2	70.855000	55.535000	22.266000
809	1	70.855000	53.620000	24.121500
810	1	68.940000	55.535000	24.121500
811	2	72.770000	53.620000	22.266000
812	2	74.685000	55.535000	22.266000
813	1	74.685000	53.620000	24.121500
814	1	72.770000	55.535000	24.121500
815	2	76.600000	53.620000	22.266000
816	2	78.515000	55.535000	22.266000
817	1	78.515000	53.620000	24.121500
818	1	76.600000	55.535000	24.121500
819	1	80.430000	55.535000	24.121500
820	1	32.555000	57.450000	24.121500
821	2	34.470000	57.450000	22.266000
822	2	36.385000	59.365000	22.266000
823	1	36.385000	57.450000	24.121500
824	1	34.470000	59.365000	24.121500
825	2	38.300000	57.450000	22.266000
826	2	40.215000	59.365000	22.266000
827	1	40.215000	57.450000	24.121500
828	1	38.300000	59.365000	24.121500
829	2	42.130000	57.450000	22.266000
830	2	44.045000	59.365000	22.266000
831	1	44.045000	57.450000	24.121500
832	1	42.130000	59.365000	24.121500
833	2	45.960000	57.450000	22.266000
834	2	47.875000	59.365000	22.266000