FePt grain test

87666	atoms
2	atom types
0.0	141.710000	xlo xhi
0.0	141.710000	ylo yhi
0.0	137.307000	zlo zhi
0.0	0.0	0.0	 xy xz yz

Atoms

1	2	70.855000	44.045000	0.000000
2	1	70.855000	42.130000	1.855500
3	1	68.940000	44.045000	1.855500
4	1	72.770000	44.045000	1.855500
5	2	67.025000	47.875000	0.000000
6	1	67.025000	45.960000	1.855500
7	1	65.110000	47.875000	1.855500
8	2	68.940000	45.960000	0.000000
9	2	70.855000	47.875000	0.000000
10	1	70.855000	45.960000	1.855500
11	1	68.940000	47.875000	1.855500
12	2	72.770000	45.960000	0.000000
13	2	74.685000	47.875000	0.000000
14	1	74.685000	45.960000	1.855500
15	1	72.770000	47.875000	1.855500
16	1	76.600000	47.875000	1.855500
17	2	63.195000	51.705000	0.000000
18	1	63.195000	49.790000	1.855500
19	1	61.280000	51.705000	1.855500
20	2	65.110000	49.790000	0.000000
21	2	67.025000	51.705000	0.000000
22	1	67.025000	49.790000	1.855500
23	1	65.110000	51.705000	1.855500
24	2	68.940000	49.790000	0.000000
25	2	70.855000	51.705000	0.000000
26	1	70.855000	49.790000	1.855500
27	1	68.940000	51.705000	1.855500
28	2	72.770000	49.790000	0.000000
29	2	74.685000	51.705000	0.000000
30	1	74.685000	49.790000	1.855500
31	1	72.770000	51.705000	1.855500
32	2	76.600000	49.790000	0.000000
33	2	78.515000	51.705000	0.000000
34	1	78.515000	49.790000	1.855500
35	1	76.600000	51.705000	1.855500
36	1	80.430000	51.705000	1.855500
37	2	59.365000	55.535000	0.000000
38	1	59.365000	53.620000	1.855500
39	1	57.450000	55.535000	1.855500
40	2	61.280000	53.620000	0.000000
41	2	63.195000	55.535000	0.000000
42	1	63.195000	53.620000	1.855500
43	1	61.280000	55.535000	1.855500
44	2	65.110000	53.620000	0.000000
45	2	67.025000	55.535000	0.000000
46	1	67.025000	53.620000	1.855500
47	1	65.110000	55.535000	1.855500
48	2	68.940000	53.620000	0.000000
49	2	70.855000	55.535000	0.000000
50	1	70.855000	53.620000	1.855500
51	1	68.940000	55.535000	1.855500
52	2	72.770000	53.620000	0.000000
53	2	74.685000	55.535000	0.000000
54	1	74.685000	53.620000	1.855500
55	1	72.770000	55.535000	1.855500
56	2	76.600000	53.620000	0.000000
57	2	78.515000	55.535000	0.000000
58	1	78.515000	53.620000	1.855500
59	1	76.600000	55.535000	1.855500
60	2	80.430000	53.620000	0.000000
61	2	82.345000	55.535000	0.000000
62	1	82.345000	53.620000	1.855500
63	1	80.430000	55.535000	1.855500
64	1	84.260000	55.535000	1.855500
65	2	55.535000	59.365000	0.000000
66	1	55.535000	57.450000	1.855500
67	1	53.620000	59.365000	1.855500
68	2	57.450000	57.450000	0.000000
69	2	59.365000	59.365000	0.000000
70	1	59.365000	57.450000	1.855500
71	1	57.450000	59.365000	1.855500
72	2	61.280000	57.450000	0.000000
73	2	63.195000	59.365000	0.000000
74	1	63.195000	57.450000	1.855500
75	1	61.280000	59.365000	1.855500
76	2	65.110000	57.450000	0.000000
77	2	67.025000	59.365000	0.000000
78	1	67.025000	57.450000	1.855500
79	1	65.110000	59.365000	1.855500
80	2	68.940000	57.450000	0.000000
81	2	70.855000	59.365000	0.000000
82	1	70.855000	57.450000	1.855500
83	1	68.940000	59.365000	1.855500
84	2	72.770000	57.450000	0.000000
85	2	74.685000	59.365000	0.000000
86	1	74.685000	57.450000	1.855500
87	1	72.770000	59.365000	1.855500
88	2	76.600000	57.450000	0.000000
89	2	78.515000	59.365000	0.000000
90	1	78.515000	57.450000	1.855500
91	1	76.600000	59.365000	1.855500
92	2	80.430000	57.450000	0.000000
93	2	82.345000	59.365000	0.000000
94	1	82.345000	57.450000	1.855500
95	1	80.430000	59.365000	1.855500
96	2	84.260000	57.450000	0.000000
97	2	86.175000	59.365000	0.000000
98	1	86.175000	57.450000	1.855500
99	1	84.260000	59.365000	1.855500
100	1	88.090000	59.365000	1.855500
101	2	51.705000	63.195000	0.000000
102	1	51.705000	61.280000	1.855500
103	1	49.790000	63.195000	1.855500
104	2	53.620000	61.280000	0.000000
105	2	55.535000	63.195000	0.000000
106	1	55.535000	61.280000	1.855500
107	1	53.620000	63.195000	1.855500
108	2	57.450000	61.280000	0.000000
109	2	59.365000	63.195000	0.000000
110	1	59.365000	61.280000	1.855500
111	1	57.450000	63.195000	1.855500
112	2	61.280000	61.280000	0.000000
113	2	63.195000	63.195000	0.000000
114	1	63.195000	61.280000	1.855500
115	1	61.280000	63.195000	1.855500
116	2	65.110000	61.280000	0.000000
117	2	67.025000	63.195000	0.000000
118	1	67.025000	61.280000	1.855500
119	1	65.110000	63.195000	1.855500
120	2	68.940000	61.280000	0.000000
121	2	70.855000	63.195000	0.000000
122	1	70.855000	61.280000	1.855500
123	1	68.940000	63.195000	1.855500
124	2	72.770000	61.280000	0.000000
125	2	74.685000	63.195000	0.000000
126	1	74.685000	61.280000	1.855500
127	1	72.770000	63.195000	1.855500
128	2	76.600000	61.280000	0.000000
129	2	78.515000	63.195000	0.000000
130	1	78.515000	61.280000	1.855500
131	1	76.600000	63.195000	1.855500
132	2	80.430000	61.280000	0.000000
133	2	82.345000	63.195000	0.000000
134	1	82.345000	61.280000	1.855500
135	1	80.430000	63.195000	1.855500
136	2	84.260000	61.280000	0.000000
137	2	86.175000	63.195000	0.000000
138	1	86.175000	61.280000	1.855500
139	1	84.260000	63.195000	1.855500
140	2	88.090000	61.280000	0.000000
141	2	90.005000	63.195000	0.000000
142	1	90.005000	61.280000	1.855500
143	1	88.090000	63.195000	1.855500
144	1	91.920000	63.195000	1.855500
145	2	47.875000	67.025000	0.000000
146	1	47.875000	65.110000	1.855500
147	1	45.960000	67.025000	1.855500
148	2	49.790000	65.110000	0.000000
149	2	51.705000	67.025000	0.000000
150	1	51.705000	65.110000	1.855500
151	1	49.790000	67.025000	1.855500
152	2	53.620000	65.110000	0.000000
153	2	55.535000	67.025000	0.000000
154	1	55.535000	65.110000	1.855500
155	1	53.620000	67.025000	1.855500
156	2	57.450000	65.110000	0.000000
157	2	59.365000	67.025000	0.000000
158	1	59.365000	65.110000	1.855500
159	1	57.450000	67.025000	1.855500
160	2	61.280000	65.110000	0.000000
161	2	63.195000	67.025000	0.000000
162	1	63.195000	65.110000	1.855500
163	1	61.280000	67.025000	1.855500
164	2	65.110000	65.110000	0.000000
165	2	67.025000	67.025000	0.000000
166	1	67.025000	65.110000	1.855500
167	1	65.110000	67.025000	1.855500
168	2	68.940000	65.110000	0.000000
169	2	70.855000	67.025000	0.000000
170	1	70.855000	65.110000	1.855500
171	1	68.940000	67.025000	1.855500
172	2	72.770000	65.110000	0.000000
173	2	74.685000	67.025000	0.000000
174	1	74.685000	65.110000	1.855500
175	1	72.770000	67.025000	1.855500
176	2	76.600000	65.110000	0.000000
177	2	78.515000	67.025000	0.000000
178	1	78.515000	65.110000	1.855500
179	1	76.600000	67.025000	1.855500
180	2	80.430000	65.110000	0.000000
181	2	82.345000	67.025000	0.000000
182	1	82.345000	65.110000	1.855500
183	1	80.430000	67.025000	1.855500
184	2	84.260000	65.110000	0.000000
185	2	86.175000	67.025000	0.000000
186	1	86.175000	65.110000	1.855500
187	1	84.260000	67.025000	1.855500
188	2	88.090000	65.110000	0.000000
189	2	90.005000	67.025000	0.000000
190	1	90.005000	65.110000	1.855500
191	1	88.090000	67.025000	1.855500
192	2	91.920000	65.110000	0.000000
193	2	93.835000	67.025000	0.000000
194	1	93.835000	65.110000	1.855500
195	1	91.920000	67.025000	1.855500
196	1	95.750000	67.025000	1.855500
197	2	44.045000	70.855000	0.000000
198	1	44.045000	68.940000	1.855500
199	1	42.130000	70.855000	1.855500
200	2	45.960000	68.940000	0.000000
201	2	47.875000	70.855000	0.000000
202	1	47.875000	68.940000	1.855500
203	1	45.960000	70.855000	1.855500
204	2	49.790000	68.940000	0.000000
205	2	51.705000	70.855000	0.000000
206	1	51.705000	68.940000	1.855500
207	1	49.790000	70.855000	1.855500
208	2	53.620000	68.940000	0.000000
209	2	55.535000	70.855000	0.000000
210	1	55.535000	68.940000	1.855500
211	1	53.620000	70.855000	1.855500
212	2	57.450000	68.940000	0.000000
213	2	59.365000	70.855000	0.000000
214	1	59.365000	68.940000	1.855500
215	1	57.450000	70.855000	1.855500
216	2	61.280000	68.940000	0.000000
217	2	63.195000	70.855000	0.000000
218	1	63.195000	68.940000	1.855500
219	1	61.280000	70.855000	1.855500
220	2	65.110000	68.940000	0.000000
221	2	67.025000	70.855000	0.000000
222	1	67.025000	68.940000	1.855500
223	1	65.110000	70.855000	1.855500
224	2	68.940000	68.940000	0.000000
225	2	70.855000	70.855000	0.000000
226	1	70.855000	68.940000	1.855500
227	1	68.940000	70.855000	1.855500
228	2	72.770000	68.940000	0.000000
229	2	74.685000	70.855000	0.000000
230	1	74.685000	68.940000	1.855500
231	1	72.770000	70.855000	1.855500
232	2	76.600000	68.940000	0.000000
233	2	78.515000	70.855000	0.000000
234	1	78.515000	68.940000	1.855500
235	1	76.600000	70.855000	1.855500
236	2	80.430000	68.940000	0.000000
237	2	82.345000	70.855000	0.000000
238	1	82.345000	68.940000	1.855500
239	1	80.430000	70.855000	1.855500
240	2	84.260000	68.940000	0.000000
241	2	86.175000	70.855000	0.000000
242	1	86.175000	68.940000	1.855500
243	1	84.260000	70.855000	1.855500
244	2	88.090000	68.940000	0.000000
245	2	90.005000	70.855000	0.000000
246	1	90.005000	68.940000	1.855500
247	1	88.090000	70.855000	1.855500
248	2	91.920000	68.940000	0.000000
249	2	93.835000	70.855000	0.000000
250	1	93.835000	68.940000	1.855500
251	1	91.920000	70.855000	1.855500
252	2	95.750000	68.940000	0.000000
253	2	97.665000	70.855000	0.000000
254	1	97.665000	68.940000	1.855500
255	1	95.750000	70.855000	1.855500
256	1	99.580000	70.855000	1.855500
257	1	44.045000	72.770000	1.855500
258	2	45.960000	72.770000	0.000000
259	2	47.875000	74.685000	0.000000
260	1	47.875000	72.770000	1.855500
261	1	45.960000	74.685000	1.855500
262	2	49.790000	72.770000	0.000000
263	2	51.705000	74.685000	0.000000
264	1	51.705000	72.770000	1.855500
265	1	49.790000	74.685000	1.855500
266	2	53.620000	72.770000	0.000000
267	2	55.535000	74.685000	0.000000
268	1	55.535000	72.770000	1.855500
269	1	53.620000	74.685000	1.855500
270	2	57.450000	72.770000	0.000000
271	2	59.365000	74.685000	0.000000
272	1	59.365000	72.770000	1.855500
273	1	57.450000	74.685000	1.855500
274	2	61.280000	72.770000	0.000000
275	2	63.195000	74.685000	0.000000
276	1	63.195000	72.770000	1.855500
277	1	61.280000	74.685000	1.855500
278	2	65.110000	72.770000	0.000000
279	2	67.025000	74.685000	0.000000
280	1	67.025000	72.770000	1.855500
281	1	65.110000	74.685000	1.855500
282	2	68.940000	72.770000	0.000000
283	2	70.855000	74.685000	0.000000
284	1	70.855000	72.770000	1.855500
285	1	68.940000	74.685000	1.855500
286	2	72.770000	72.770000	0.000000
287	2	74.685000	74.685000	0.000000
288	1	74.685000	72.770000	1.855500
289	1	72.770000	74.685000	1.855500
290	2	76.600000	72.770000	0.000000
291	2	78.515000	74.685000	0.000000
292	1	78.515000	72.770000	1.855500
293	1	76.600000	74.685000	1.855500
294	2	80.430000	72.770000	0.000000
295	2	82.345000	74.685000	0.000000
296	1	82.345000	72.770000	1.855500
297	1	80.430000	74.685000	1.855500
298	2	84.260000	72.770000	0.000000
299	2	86.175000	74.685000	0.000000
300	1	86.175000	72.770000	1.855500
301	1	84.260000	74.685000	1.855500
302	2	88.090000	72.770000	0.000000
303	2	90.005000	74.685000	0.000000
304	1	90.005000	72.770000	1.855500
305	1	88.090000	74.685000	1.855500
306	2	91.920000	72.770000	0.000000
307	2	93.835000	74.685000	0.000000
308	1	93.835000	72.770000	1.855500
309	1	91.920000	74.685000	1.855500
310	2	95.750000	72.770000	0.000000
311	1	97.665000	72.770000	1.855500
312	1	95.750000	74.685000	1.855500
313	1	47.875000	76.600000	1.855500
314	2	49.790000	76.600000	0.000000
315	2	51.705000	78.515000	0.000000
316	1	51.705000	76.600000	1.855500
317	1	49.790000	78.515000	1.855500
318	2	53.620000	76.600000	0.000000
319	2	55.535000	78.515000	0.000000
320	1	55.535000	76.600000	1.855500
321	1	53.620000	78.515000	1.855500
322	2	57.450000	76.600000	0.000000
323	2	59.365000	78.515000	0.000000
324	1	59.365000	76.600000	1.855500
325	1	57.450000	78.515000	1.855500
326	2	61.280000	76.600000	0.000000
327	2	63.195000	78.515000	0.000000
328	1	63.195000	76.600000	1.855500
329	1	61.280000	78.515000	1.855500
330	2	65.110000	76.600000	0.000000
331	2	67.025000	78.515000	0.000000
332	1	67.025000	76.600000	1.855500
333	1	65.110000	78.515000	1.855500
334	2	68.940000	76.600000	0.000000
335	2	70.855000	78.515000	0.000000
336	1	70.855000	76.600000	1.855500
337	1	68.940000	78.515000	1.855500
338	2	72.770000	76.600000	0.000000
339	2	74.685000	78.515000	0.000000
340	1	74.685000	76.600000	1.855500
341	1	72.770000	78.515000	1.855500
342	2	76.600000	76.600000	0.000000
343	2	78.515000	78.515000	0.000000
344	1	78.515000	76.600000	1.855500
345	1	76.600000	78.515000	1.855500
346	2	80.430000	76.600000	0.000000
347	2	82.345000	78.515000	0.000000
348	1	82.345000	76.600000	1.855500
349	1	80.430000	78.515000	1.855500
350	2	84.260000	76.600000	0.000000
351	2	86.175000	78.515000	0.000000
352	1	86.175000	76.600000	1.855500
353	1	84.260000	78.515000	1.855500
354	2	88.090000	76.600000	0.000000
355	2	90.005000	78.515000	0.000000
356	1	90.005000	76.600000	1.855500
357	1	88.090000	78.515000	1.855500
358	2	91.920000	76.600000	0.000000
359	1	93.835000	76.600000	1.855500
360	1	91.920000	78.515000	1.855500
361	1	51.705000	80.430000	1.855500
362	2	53.620000	80.430000	0.000000
363	2	55.535000	82.345000	0.000000
364	1	55.535000	80.430000	1.855500
365	1	53.620000	82.345000	1.855500
366	2	57.450000	80.430000	0.000000
367	2	59.365000	82.345000	0.000000
368	1	59.365000	80.430000	1.855500
369	1	57.450000	82.345000	1.855500
370	2	61.280000	80.430000	0.000000
371	2	63.195000	82.345000	0.000000
372	1	63.195000	80.430000	1.855500
373	1	61.280000	82.345000	1.855500
374	2	65.110000	80.430000	0.000000
375	2	67.025000	82.345000	0.000000
376	1	67.025000	80.430000	1.855500
377	1	65.110000	82.345000	1.855500
378	2	68.940000	80.430000	0.000000
379	2	70.855000	82.345000	0.000000
380	1	70.855000	80.430000	1.855500
381	1	68.940000	82.345000	1.855500
382	2	72.770000	80.430000	0.000000
383	2	74.685000	82.345000	0.000000
384	1	74.685000	80.430000	1.855500
385	1	72.770000	82.345000	1.855500
386	2	76.600000	80.430000	0.000000
387	2	78.515000	82.345000	0.000000
388	1	78.515000	80.430000	1.855500
389	1	76.600000	82.345000	1.855500
390	2	80.430000	80.430000	0.000000
391	2	82.345000	82.345000	0.000000
392	1	82.345000	80.430000	1.855500
393	1	80.430000	82.345000	1.855500
394	2	84.260000	80.430000	0.000000
395	2	86.175000	82.345000	0.000000
396	1	86.175000	80.430000	1.855500
397	1	84.260000	82.345000	1.855500
398	2	88.090000	80.430000	0.000000
399	1	90.005000	80.430000	1.855500
400	1	88.090000	82.345000	1.855500
401	1	55.535000	84.260000	1.855500
402	2	57.450000	84.260000	0.000000
403	2	59.365000	86.175000	0.000000
404	1	59.365000	84.260000	1.855500
405	1	57.450000	86.175000	1.855500
406	2	61.280000	84.260000	0.000000
407	2	63.195000	86.175000	0.000000
408	1	63.195000	84.260000	1.855500
409	1	61.280000	86.175000	1.855500
410	2	65.110000	84.260000	0.000000
411	2	67.025000	86.175000	0.000000
412	1	67.025000	84.260000	1.855500
413	1	65.110000	86.175000	1.855500
414	2	68.940000	84.260000	0.000000
415	2	70.855000	86.175000	0.000000
416	1	70.855000	84.260000	1.855500
417	1	68.940000	86.175000	1.855500
418	2	72.770000	84.260000	0.000000
419	2	74.685000	86.175000	0.000000
420	1	74.685000	84.260000	1.855500
421	1	72.770000	86.175000	1.855500
422	2	76.600000	84.260000	0.000000
423	2	78.515000	86.175000	0.000000
424	1	78.515000	84.260000	1.855500
425	1	76.600000	86.175000	1.855500
426	2	80.430000	84.260000	0.000000
427	2	82.345000	86.175000	0.000000
428	1	82.345000	84.260000	1.855500
429	1	80.430000	86.175000	1.855500
430	2	84.260000	84.260000	0.000000
431	1	86.175000	84.260000	1.855500
432	1	84.260000	86.175000	1.855500
433	1	59.365000	88.090000	1.855500
434	2	61.280000	88.090000	0.000000
435	2	63.195000	90.005000	0.000000
436	1	63.195000	88.090000	1.855500
437	1	61.280000	90.005000	1.855500
438	2	65.110000	88.090000	0.000000
439	2	67.025000	90.005000	0.000000
440	1	67.025000	88.090000	1.855500
441	1	65.110000	90.005000	1.855500
442	2	68.940000	88.090000	0.000000
443	2	70.855000	90.005000	0.000000
444	1	70.855000	88.090000	1.855500
445	1	68.940000	90.005000	1.855500
446	2	72.770000	88.090000	0.000000
447	2	74.685000	90.005000	0.000000
448	1	74.685000	88.090000	1.855500
449	1	72.770000	90.005000	1.855500
450	2	76.600000	88.090000	0.000000
451	2	78.515000	90.005000	0.000000
452	1	78.515000	88.090000	1.855500
453	1	76.600000	90.005000	1.855500
454	2	80.430000	88.090000	0.000000
455	1	82.345000	88.090000	1.855500
456	1	80.430000	90.005000	1.855500
457	1	63.195000	91.920000	1.855500
458	2	65.110000	91.920000	0.000000
459	2	67.025000	93.835000	0.000000
460	1	67.025000	91.920000	1.855500
461	1	65.110000	93.835000	1.855500
462	2	68.940000	91.920000	0.000000
463	2	70.855000	93.835000	0.000000
464	1	70.855000	91.920000	1.855500
465	1	68.940000	93.835000	1.855500
466	2	72.770000	91.920000	0.000000
467	2	74.685000	93.835000	0.000000
468	1	74.685000	91.920000	1.855500
469	1	72.770000	93.835000	1.855500
470	2	76.600000	91.920000	0.000000
471	1	78.515000	91.920000	1.855500
472	1	76.600000	93.835000	1.855500
473	1	67.025000	95.750000	1.855500
474	2	68.940000	95.750000	0.000000
475	2	70.855000	97.665000	0.000000
476	1	70.855000	95.750000	1.855500
477	1	68.940000	97.665000	1.855500
478	2	72.770000	95.750000	0.000000
479	1	74.685000	95.750000	1.855500
480	1	72.770000	97.665000	1.855500
481	1	70.855000	99.580000	1.855500
482	2	70.855000	40.215000	3.711000
483	1	70.855000	38.300000	5.566500
484	1	68.940000	40.215000	5.566500
485	1	72.770000	40.215000	5.566500
486	2	67.025000	44.045000	3.711000
487	1	67.025000	42.130000	5.566500
488	1	65.110000	44.045000	5.566500
489	2	68.940000	42.130000	3.711000
490	2	70.855000	44.045000	3.711000
491	1	70.855000	42.130000	5.566500
492	1	68.940000	44.045000	5.566500
493	2	72.770000	42.130000	3.711000
494	2	74.685000	44.045000	3.711000
495	1	74.685000	42.130000	5.566500
496	1	72.770000	44.045000	5.566500
497	1	76.600000	44.045000	5.566500
498	2	63.195000	47.875000	3.711000
499	1	63.195000	45.960000	5.566500
500	1	61.280000	47.875000	5.566500
501	2	65.110000	45.960000	3.711000
502	2	67.025000	47.875000	3.711000
503	1	67.025000	45.960000	5.566500
504	1	65.110000	47.875000	5.566500
505	2	68.940000	45.960000	3.711000
506	2	70.855000	47.875000	3.711000
507	1	70.855000	45.960000	5.566500
508	1	68.940000	47.875000	5.566500
509	2	72.770000	45.960000	3.711000
510	2	74.685000	47.875000	3.711000
511	1	74.685000	45.960000	5.566500
512	1	72.770000	47.875000	5.566500
513	2	76.600000	45.960000	3.711000
514	2	78.515000	47.875000	3.711000
515	1	78.515000	45.960000	5.566500
516	1	76.600000	47.875000	5.566500
517	1	80.430000	47.875000	5.566500
518	2	59.365000	51.705000	3.711000
519	1	59.365000	49.790000	5.566500
520	1	57.450000	51.705000	5.566500
521	2	61.280000	49.790000	3.711000
522	2	63.195000	51.705000	3.711000
523	1	63.195000	49.790000	5.566500
524	1	61.280000	51.705000	5.566500
525	2	65.110000	49.790000	3.711000
526	2	67.025000	51.705000	3.711000
527	1	67.025000	49.790000	5.566500
528	1	65.110000	51.705000	5.566500
529	2	68.940000	49.790000	3.711000
530	2	70.855000	51.705000	3.711000
531	1	70.855000	49.790000	5.566500
532	1	68.940000	51.705000	5.566500
533	2	72.770000	49.790000	3.711000
534	2	74.685000	51.705000	3.711000
535	1	74.685000	49.790000	5.566500
536	1	72.770000	51.705000	5.566500
537	2	76.600000	49.790000	3.711000
538	2	78.515000	51.705000	3.711000
539	1	78.515000	49.790000	5.566500
540	1	76.600000	51.705000	5.566500
541	2	80.430000	49.790000	3.711000
542	2	82.345000	51.705000	3.711000
543	1	82.345000	49.790000	5.566500
544	1	80.430000	51.705000	5.566500
545	1	84.260000	51.705000	5.566500
546	2	55.535000	55.535000	3.711000
547	1	55.535000	53.620000	5.566500
548	1	53.620000	55.535000	5.566500
549	2	57.450000	53.620000	3.711000
550	2	59.365000	55.535000	3.711000
551	1	59.365000	53.620000	5.566500
552	1	57.450000	55.535000	5.566500
553	2	61.280000	53.620000	3.711000
554	2	63.195000	55.535000	3.711000
555	1	63.195000	53.620000	5.566500
556	1	61.280000	55.535000	5.566500
557	2	65.110000	53.620000	3.711000
558	2	67.025000	55.535000	3.711000
559	1	67.025000	53.620000	5.566500
560	1	65.110000	55.535000	5.566500
561	2	68.940000	53.620000	3.711000
562	2	70.855000	55.535000	3.711000
563	1	70.855000	53.620000	5.566500
564	1	68.940000	55.535000	5.566500
565	2	72.770000	53.620000	3.711000
566	2	74.685000	55.535000	3.711000
567	1	74.685000	53.620000	5.566500
568	1	72.770000	55.535000	5.566500
569	2	76.600000	53.620000	3.711000
570	2	78.515000	55.535000	3.711000
571	1	78.515000	53.620000	5.566500
572	1	76.600000	55.535000	5.566500
573	2	80.430000	53.620000	3.711000
574	2	82.345000	55.535000	3.711000
575	1	82.345000	53.620000	5.566500
576	1	80.430000	55.535000	5.566500
577	2	84.260000	53.620000	3.711000
578	2	86.175000	55.535000	3.711000
579	1	86.175000	53.620000	5.566500
580	1	84.260000	55.535000	5.566500
581	1	88.090000	55.535000	5.566500
582	2	51.705000	59.365000	3.711000
583	1	51.705000	57.450000	5.566500
584	1	49.790000	59.365000	5.566500
585	2	53.620000	57.450000	3.711000
586	2	55.535000	59.365000	3.711000
587	1	55.535000	57.450000	5.566500
588	1	53.620000	59.365000	5.566500
589	2	57.450000	57.450000	3.711000
590	2	59.365000	59.365000	3.711000
591	1	59.365000	57.450000	5.566500
592	1	57.450000	59.365000	5.566500
593	2	61.280000	57.450000	3.711000
594	2	63.195000	59.365000	3.711000
595	1	63.195000	57.450000	5.566500
596	1	61.280000	59.365000	5.566500
597	2	65.110000	57.450000	3.711000
598	2	67.025000	59.365000	3.711000
599	1	67.025000	57.450000	5.566500
600	1	65.110000	59.365000	5.566500
601	2	68.940000	57.450000	3.711000
602	2	70.855000	59.365000	3.711000
603	1	70.855000	57.450000	5.566500
604	1	68.940000	59.365000	5.566500
605	2	72.770000	57.450000	3.711000
606	2	74.685000	59.365000	3.711000
607	1	74.685000	57.450000	5.566500
608	1	72.770000	59.365000	5.566500
609	2	76.600000	57.450000	3.711000
610	2	78.515000	59.365000	3.711000
611	1	78.515000	57.450000	5.566500
612	1	76.600000	59.365000	5.566500
613	2	80.430000	57.450000	3.711000
614	2	82.345000	59.365000	3.711000
615	1	82.345000	57.450000	5.566500
616	1	80.430000	59.365000	5.566500
617	2	84.260000	57.450000	3.711000
618	2	86.175000	59.365000	3.711000
619	1	86.175000	57.450000	5.566500
620	1	84.260000	59.365000	5.566500
621	2	88.090000	57.450000	3.711000
622	2	90.005000	59.365000	3.711000
623	1	90.005000	57.450000	5.566500
624	1	88.090000	59.365000	5.566500
625	1	91.920000	59.365000	5.566500
626	2	47.875000	63.195000	3.711000
627	1	47.875000	61.280000	5.566500
628	1	45.960000	63.195000	5.566500
629	2	49.790000	61.280000	3.711000
630	2	51.705000	63.195000	3.711000
631	1	51.705000	61.280000	5.566500
632	1	49.790000	63.195000	5.566500
633	2	53.620000	61.280000	3.711000
634	2	55.535000	63.195000	3.711000
635	1	55.535000	61.280000	5.566500
636	1	53.620000	63.195000	5.566500
637	2	57.450000	61.280000	3.711000
638	2	59.365000	63.195000	3.711000
639	1	59.365000	61.280000	5.566500
640	1	57.450000	63.195000	5.566500
641	2	61.280000	61.280000	3.711000
642	2	63.195000	63.195000	3.711000
643	1	63.195000	61.280000	5.566500
644	1	61.280000	63.195000	5.566500
645	2	65.110000	61.280000	3.711000
646	2	67.025000	63.195000	3.711000
647	1	67.025000	61.280000	5.566500
648	1	65.110000	63.195000	5.566500
649	2	68.940000	61.280000	3.711000
650	2	70.855000	63.195000	3.711000
651	1	70.855000	61.280000	5.566500
652	1	68.940000	63.195000	5.566500
653	2	72.770000	61.280000	3.711000
654	2	74.685000	63.195000	3.711000
655	1	74.685000	61.280000	5.566500
656	1	72.770000	63.195000	5.566500
657	2	76.600000	61.280000	3.711000
658	2	78.515000	63.195000	3.711000
659	1	78.515000	61.280000	5.566500
660	1	76.600000	63.195000	5.566500
661	2	80.430000	61.280000	3.711000
662	2	82.345000	63.195000	3.711000
663	1	82.345000	61.280000	5.566500
664	1	80.430000	63.195000	5.566500
665	2	84.260000	61.280000	3.711000
666	2	86.175000	63.195000	3.711000
667	1	86.175000	61.280000	5.566500
668	1	84.260000	63.195000	5.566500
669	2	88.090000	61.280000	3.711000
670	2	90.005000	63.195000	3.711000
671	1	90.005000	61.280000	5.566500
672	1	88.090000	63.195000	5.566500
673	2	91.920000	61.280000	3.711000
674	2	93.835000	63.195000	3.711000
675	1	93.835000	61.280000	5.566500
676	1	91.920000	63.195000	5.566500
677	1	95.750000	63.195000	5.566500
678	2	44.045000	67.025000	3.711000
679	1	44.045000	65.110000	5.566500
680	1	42.130000	67.025000	5.566500
681	2	45.960000	65.110000	3.711000
682	2	47.875000	67.025000	3.711000
683	1	47.875000	65.110000	5.566500
684	1	45.960000	67.025000	5.566500
685	2	49.790000	65.110000	3.711000
686	2	51.705000	67.025000	3.711000
687	1	51.705000	65.110000	5.566500
688	1	49.790000	67.025000	5.566500
689	2	53.620000	65.110000	3.711000
690	2	55.535000	67.025000	3.711000
691	1	55.535000	65.110000	5.566500
692	1	53.620000	67.025000	5.566500
693	2	57.450000	65.110000	3.711000
694	2	59.365000	67.025000	3.711000
695	1	59.365000	65.110000	5.566500
696	1	57.450000	67.025000	5.566500
697	2	61.280000	65.110000	3.711000
698	2	63.195000	67.025000	3.711000
699	1	63.195000	65.110000	5.566500
700	1	61.280000	67.025000	5.566500
701	2	65.110000	65.110000	3.711000
702	2	67.025000	67.025000	3.711000
703	1	67.025000	65.110000	5.566500
704	1	65.110000	67.025000	5.566500
705	2	68.940000	65.110000	3.711000
706	2	70.855000	67.025000	3.711000
707	1	70.855000	65.110000	5.566500
708	1	68.940000	67.025000	5.566500
709	2	72.770000	65.110000	3.711000
710	2	74.685000	67.025000	3.711000
711	1	74.685000	65.110000	5.566500
712	1	72.770000	67.025000	5.566500
713	2	76.600000	65.110000	3.711000
714	2	78.515000	67.025000	3.711000
715	1	78.515000	65.110000	5.566500
716	1	76.600000	67.025000	5.566500
717	2	80.430000	65.110000	3.711000
718	2	82.345000	67.025000	3.711000
719	1	82.345000	65.110000	5.566500
720	1	80.430000	67.025000	5.566500
721	2	84.260000	65.110000	3.711000
722	2	86.175000	67.025000	3.711000
723	1	86.175000	65.110000	5.566500
724	1	84.260000	67.025000	5.566500
725	2	88.090000	65.110000	3.711000
726	2	90.005000	67.025000	3.711000
727	1	90.005000	65.110000	5.566500
728	1	88.090000	67.025000	5.566500
729	2	91.920000	65.110000	3.711000
730	2	93.835000	67.025000	3.711000
731	1	93.835000	65.110000	5.566500
732	1	91.920000	67.025000	5.566500
733	2	95.750000	65.110000	3.711000
734	2	97.665000	67.025000	3.711000
735	1	97.665000	65.110000	5.566500
736	1	95.750000	67.025000	5.566500
737	1	99.580000	67.025000	5.566500
738	2	40.215000	70.855000	3.711000
739	1	40.215000	68.940000	5.566500
740	1	38.300000	70.855000	5.566500
741	2	42.130000	68.940000	3.711000
742	2	44.045000	70.855000	3.711000
743	1	44.045000	68.940000	5.566500
744	1	42.130000	70.855000	5.566500
745	2	45.960000	68.940000	3.711000
746	2	47.875000	70.855000	3.711000
747	1	47.875000	68.940000	5.566500
748	1	45.960000	70.855000	5.566500
749	2	49.790000	68.940000	3.711000
750	2	51.705000	70.855000	3.711000
751	1	51.705000	68.940000	5.566500
752	1	49.790000	70.855000	5.566500
753	2	53.620000	68.940000	3.711000
754	2	55.535000	70.855000	3.711000
755	1	55.535000	68.940000	5.566500
756	1	53.620000	70.855000	5.566500
757	2	57.450000	68.940000	3.711000
758	2	59.365000	70.855000	3.711000
759	1	59.365000	68.940000	5.566500
760	1	57.450000	70.855000	5.566500
761	2	61.280000	68.940000	3.711000
762	2	63.195000	70.855000	3.711000
763	1	63.195000	68.940000	5.566500
764	1	61.280000	70.855000	5.566500
765	2	65.110000	68.940000	3.711000
766	2	67.025000	70.855000	3.711000
767	1	67.025000	68.940000	5.566500
768	1	65.110000	70.855000	5.566500
769	2	68.940000	68.940000	3.711000
770	2	70.855000	70.855000	3.711000
771	1	70.855000	68.940000	5.566500
772	1	68.940000	70.855000	5.566500
773	2	72.770000	68.940000	3.711000
774	2	74.685000	70.855000	3.711000
775	1	74.685000	68.940000	5.566500
776	1	72.770000	70.855000	5.566500
777	2	76.600000	68.940000	3.711000
778	2	78.515000	70.855000	3.711000
779	1	78.515000	68.940000	5.566500
780	1	76.600000	70.855000	5.566500
781	2	80.430000	68.940000	3.711000
782	2	82.345000	70.855000	3.711000
783	1	82.345000	68.940000	5.566500
784	1	80.430000	70.855000	5.566500
785	2	84.260000	68.940000	3.711000
786	2	86.175000	70.855000	3.711000
787	1	86.175000	68.940000	5.566500
788	1	84.260000	70.855000	5.566500
789	2	88.090000	68.940000	3.711000
790	2	90.005000	70.855000	3.711000
791	1	90.005000	68.940000	5.566500
792	1	88.090000	70.855000	5.566500
793	2	91.920000	68.940000	3.711000
794	2	93.835000	70.855000	3.711000
795	1	93.835000	68.940000	5.566500
796	1	91.920000	70.855000	5.566500
797	2	95.750000	68.940000	3.711000
798	2	97.665000	70.855000	3.711000
799	1	97.665000	68.940000	5.566500
800	1	95.750000	70.855000	5.566500
801	2	99.580000	68.940000	3.711000
802	2	101.495000	70.855000	3.711000
803	1	101.495000	68.940000	5.566500
804	1	99.580000	70.855000	5.566500
805	1	103.410000	70.855000	5.566500
806	1	40.215000	72.770000	5.566500
807	2	42.130000	72.770000	3.711000
808	2	44.045000	74.685000	3.711000
809	1	44.045000	72.770000	5.566500
810	1	42.130000	74.685000	5.566500
811	2	45.960000	72.770000	3.711000
812	2	47.875000	74.685000	3.711000
813	1	47.875000	72.770000	5.566500
814	1	45.960000	74.685000	5.566500
815	2	49.790000	72.770000	3.711000
816	2	51.705000	74.685000	3.711000
817	1	51.705000	72.770000	5.566500
818	1	49.790000	74.685000	5.566500
819	2	53.620000	72.770000	3.711000
820	2	55.535000	74.685000	3.711000
821	1	55.535000	72.770000	5.566500
822	1	53.620000	74.685000	5.566500
823	2	57.450000	72.770000	3.711000
824	2	59.365000	74.685000	3.711000
825	1	59.365000	72.770000	5.566500
826	1	57.450000	74.685000	5.566500
827	2	61.280000	72.770000	3.711000
828	2	63.195000	74.685000	3.711000
829	1	63.195000	72.770000	5.566500
830	1	61.280000	74.685000	5.566500
831	2	65.110000	72.770000	3.711000
832	2	67.025000	74.685000	3.711000
833	1	67.025000	72.770000	5.566500
834	1	65.110000	74.685000	5.566500
835	2	68.940000	72.770000	3.711000
836	2	70.855000	74.685000	3.711000
837	1	70.855000	72.770000	5.566500
838	1	68.940000	74.685000	5.566500
839	2	72.770000	72.770000	3.711000
840	2	74.685000	74.685000	3.711000
841	1	74.685000	72.770000	5.566500
842	1	72.770000	74.685000	5.566500
843	2	76.600000	72.770000	3.711000
844	2	78.515000	74.685000	3.711000
845	1	78.515000	72.770000	5.566500
846	1	76.600000	74.685000	5.566500
847	2	80.430000	72.770000	3.711000
848	2	82.345000	74.685000	3.711000
849	1	82.345000	72.770000	5.566500
850	1	80.430000	74.685000	5.566500
851	2	84.260000	72.770000	3.711000
852	2	86.175000	74.685000	3.711000
853	1	86.175000	72.770000	5.566500
854	1	84.260000	74.685000	5.566500
855	2	88.090000	72.770000	3.711000
856	2	90.005000	74.685000	3.711000