FePt grain test

861	atoms
2	atom types
0.0	38.300000	xlo xhi
0.0	38.300000	ylo yhi
0.0	37.110000	zlo zhi
0.0	0.0	0.0	 xy xz yz

Atoms

1	1	19.150000	17.235000	1.855500
2	1	17.235000	19.150000	1.855500
3	2	19.150000	19.150000	0.000000
4	1	21.065000	19.150000	1.855500
5	1	19.150000	21.065000	1.855500
6	1	19.150000	13.405000	5.566500
7	2	17.235000	17.235000	3.711000
8	1	17.235000	15.320000	5.566500
9	1	15.320000	17.235000	5.566500
10	2	19.150000	15.320000	3.711000
11	2	21.065000	17.235000	3.711000
12	1	21.065000	15.320000	5.566500
13	1	19.150000	17.235000	5.566500
14	1	22.980000	17.235000	5.566500
15	1	13.405000	19.150000	5.566500
16	2	15.320000	19.150000	3.711000
17	2	17.235000	21.065000	3.711000
18	1	17.235000	19.150000	5.566500
19	1	15.320000	21.065000	5.566500
20	2	19.150000	19.150000	3.711000
21	2	21.065000	21.065000	3.711000
22	1	21.065000	19.150000	5.566500
23	1	19.150000	21.065000	5.566500
24	2	22.980000	19.150000	3.711000
25	1	24.895000	19.150000	5.566500
26	1	22.980000	21.065000	5.566500
27	1	17.235000	22.980000	5.566500
28	2	19.150000	22.980000	3.711000
29	1	21.065000	22.980000	5.566500
30	1	19.150000	24.895000	5.566500
31	1	19.150000	9.575000	9.277500
32	2	17.235000	13.405000	7.422000
33	1	17.235000	11.490000	9.277500
34	1	15.320000	13.405000	9.277500
35	2	19.150000	11.490000	7.422000
36	2	21.065000	13.405000	7.422000
37	1	21.065000	11.490000	9.277500
38	1	19.150000	13.405000	9.277500
39	1	22.980000	13.405000	9.277500
40	2	13.405000	17.235000	7.422000
41	1	13.405000	15.320000	9.277500
42	1	11.490000	17.235000	9.277500
43	2	15.320000	15.320000	7.422000
44	2	17.235000	17.235000	7.422000
45	1	17.235000	15.320000	9.277500
46	1	15.320000	17.235000	9.277500
47	2	19.150000	15.320000	7.422000
48	2	21.065000	17.235000	7.422000
49	1	21.065000	15.320000	9.277500
50	1	19.150000	17.235000	9.277500
51	2	22.980000	15.320000	7.422000
52	2	24.895000	17.235000	7.422000
53	1	24.895000	15.320000	9.277500
54	1	22.980000	17.235000	9.277500
55	1	26.810000	17.235000	9.277500
56	1	9.575000	19.150000	9.277500
57	2	11.490000	19.150000	7.422000
58	2	13.405000	21.065000	7.422000
59	1	13.405000	19.150000	9.277500
60	1	11.490000	21.065000	9.277500
61	2	15.320000	19.150000	7.422000
62	2	17.235000	21.065000	7.422000
63	1	17.235000	19.150000	9.277500
64	1	15.320000	21.065000	9.277500
65	2	19.150000	19.150000	7.422000
66	2	21.065000	21.065000	7.422000
67	1	21.065000	19.150000	9.277500
68	1	19.150000	21.065000	9.277500
69	2	22.980000	19.150000	7.422000
70	2	24.895000	21.065000	7.422000
71	1	24.895000	19.150000	9.277500
72	1	22.980000	21.065000	9.277500
73	2	26.810000	19.150000	7.422000
74	1	28.725000	19.150000	9.277500
75	1	26.810000	21.065000	9.277500
76	1	13.405000	22.980000	9.277500
77	2	15.320000	22.980000	7.422000
78	2	17.235000	24.895000	7.422000
79	1	17.235000	22.980000	9.277500
80	1	15.320000	24.895000	9.277500
81	2	19.150000	22.980000	7.422000
82	2	21.065000	24.895000	7.422000
83	1	21.065000	22.980000	9.277500
84	1	19.150000	24.895000	9.277500
85	2	22.980000	22.980000	7.422000
86	1	24.895000	22.980000	9.277500
87	1	22.980000	24.895000	9.277500
88	1	17.235000	26.810000	9.277500
89	2	19.150000	26.810000	7.422000
90	1	21.065000	26.810000	9.277500
91	1	19.150000	28.725000	9.277500
92	1	19.150000	5.745000	12.988500
93	2	17.235000	9.575000	11.133000
94	1	17.235000	7.660000	12.988500
95	1	15.320000	9.575000	12.988500
96	2	19.150000	7.660000	11.133000
97	2	21.065000	9.575000	11.133000
98	1	21.065000	7.660000	12.988500
99	1	19.150000	9.575000	12.988500
100	1	22.980000	9.575000	12.988500
101	2	13.405000	13.405000	11.133000
102	1	13.405000	11.490000	12.988500
103	1	11.490000	13.405000	12.988500
104	2	15.320000	11.490000	11.133000
105	2	17.235000	13.405000	11.133000
106	1	17.235000	11.490000	12.988500
107	1	15.320000	13.405000	12.988500
108	2	19.150000	11.490000	11.133000
109	2	21.065000	13.405000	11.133000
110	1	21.065000	11.490000	12.988500
111	1	19.150000	13.405000	12.988500
112	2	22.980000	11.490000	11.133000
113	2	24.895000	13.405000	11.133000
114	1	24.895000	11.490000	12.988500
115	1	22.980000	13.405000	12.988500
116	1	26.810000	13.405000	12.988500
117	2	9.575000	17.235000	11.133000
118	1	9.575000	15.320000	12.988500
119	1	7.660000	17.235000	12.988500
120	2	11.490000	15.320000	11.133000
121	2	13.405000	17.235000	11.133000
122	1	13.405000	15.320000	12.988500
123	1	11.490000	17.235000	12.988500
124	2	15.320000	15.320000	11.133000
125	2	17.235000	17.235000	11.133000
126	1	17.235000	15.320000	12.988500
127	1	15.320000	17.235000	12.988500
128	2	19.150000	15.320000	11.133000
129	2	21.065000	17.235000	11.133000
130	1	21.065000	15.320000	12.988500
131	1	19.150000	17.235000	12.988500
132	2	22.980000	15.320000	11.133000
133	2	24.895000	17.235000	11.133000
134	1	24.895000	15.320000	12.988500
135	1	22.980000	17.235000	12.988500
136	2	26.810000	15.320000	11.133000
137	2	28.725000	17.235000	11.133000
138	1	28.725000	15.320000	12.988500
139	1	26.810000	17.235000	12.988500
140	1	30.640000	17.235000	12.988500
141	1	5.745000	19.150000	12.988500
142	2	7.660000	19.150000	11.133000
143	2	9.575000	21.065000	11.133000
144	1	9.575000	19.150000	12.988500
145	1	7.660000	21.065000	12.988500
146	2	11.490000	19.150000	11.133000
147	2	13.405000	21.065000	11.133000
148	1	13.405000	19.150000	12.988500
149	1	11.490000	21.065000	12.988500
150	2	15.320000	19.150000	11.133000
151	2	17.235000	21.065000	11.133000
152	1	17.235000	19.150000	12.988500
153	1	15.320000	21.065000	12.988500
154	2	19.150000	19.150000	11.133000
155	2	21.065000	21.065000	11.133000
156	1	21.065000	19.150000	12.988500
157	1	19.150000	21.065000	12.988500
158	2	22.980000	19.150000	11.133000
159	2	24.895000	21.065000	11.133000
160	1	24.895000	19.150000	12.988500
161	1	22.980000	21.065000	12.988500
162	2	26.810000	19.150000	11.133000
163	2	28.725000	21.065000	11.133000
164	1	28.725000	19.150000	12.988500
165	1	26.810000	21.065000	12.988500
166	2	30.640000	19.150000	11.133000
167	1	32.555000	19.150000	12.988500
168	1	30.640000	21.065000	12.988500
169	1	9.575000	22.980000	12.988500
170	2	11.490000	22.980000	11.133000
171	2	13.405000	24.895000	11.133000
172	1	13.405000	22.980000	12.988500
173	1	11.490000	24.895000	12.988500
174	2	15.320000	22.980000	11.133000
175	2	17.235000	24.895000	11.133000
176	1	17.235000	22.980000	12.988500
177	1	15.320000	24.895000	12.988500
178	2	19.150000	22.980000	11.133000
179	2	21.065000	24.895000	11.133000
180	1	21.065000	22.980000	12.988500
181	1	19.150000	24.895000	12.988500
182	2	22.980000	22.980000	11.133000
183	2	24.895000	24.895000	11.133000
184	1	24.895000	22.980000	12.988500
185	1	22.980000	24.895000	12.988500
186	2	26.810000	22.980000	11.133000
187	1	28.725000	22.980000	12.988500
188	1	26.810000	24.895000	12.988500
189	1	13.405000	26.810000	12.988500
190	2	15.320000	26.810000	11.133000
191	2	17.235000	28.725000	11.133000
192	1	17.235000	26.810000	12.988500
193	1	15.320000	28.725000	12.988500
194	2	19.150000	26.810000	11.133000
195	2	21.065000	28.725000	11.133000
196	1	21.065000	26.810000	12.988500
197	1	19.150000	28.725000	12.988500
198	2	22.980000	26.810000	11.133000
199	1	24.895000	26.810000	12.988500
200	1	22.980000	28.725000	12.988500
201	1	17.235000	30.640000	12.988500
202	2	19.150000	30.640000	11.133000
203	1	21.065000	30.640000	12.988500
204	1	19.150000	32.555000	12.988500
205	1	19.150000	1.915000	16.699500
206	2	17.235000	5.745000	14.844000
207	1	17.235000	3.830000	16.699500
208	1	15.320000	5.745000	16.699500
209	2	19.150000	3.830000	14.844000
210	2	21.065000	5.745000	14.844000
211	1	21.065000	3.830000	16.699500
212	1	19.150000	5.745000	16.699500
213	1	22.980000	5.745000	16.699500
214	2	13.405000	9.575000	14.844000
215	1	13.405000	7.660000	16.699500
216	1	11.490000	9.575000	16.699500
217	2	15.320000	7.660000	14.844000
218	2	17.235000	9.575000	14.844000
219	1	17.235000	7.660000	16.699500
220	1	15.320000	9.575000	16.699500
221	2	19.150000	7.660000	14.844000
222	2	21.065000	9.575000	14.844000
223	1	21.065000	7.660000	16.699500
224	1	19.150000	9.575000	16.699500
225	2	22.980000	7.660000	14.844000
226	2	24.895000	9.575000	14.844000
227	1	24.895000	7.660000	16.699500
228	1	22.980000	9.575000	16.699500
229	1	26.810000	9.575000	16.699500
230	2	9.575000	13.405000	14.844000
231	1	9.575000	11.490000	16.699500
232	1	7.660000	13.405000	16.699500
233	2	11.490000	11.490000	14.844000
234	2	13.405000	13.405000	14.844000
235	1	13.405000	11.490000	16.699500
236	1	11.490000	13.405000	16.699500
237	2	15.320000	11.490000	14.844000
238	2	17.235000	13.405000	14.844000
239	1	17.235000	11.490000	16.699500
240	1	15.320000	13.405000	16.699500
241	2	19.150000	11.490000	14.844000
242	2	21.065000	13.405000	14.844000
243	1	21.065000	11.490000	16.699500
244	1	19.150000	13.405000	16.699500
245	2	22.980000	11.490000	14.844000
246	2	24.895000	13.405000	14.844000
247	1	24.895000	11.490000	16.699500
248	1	22.980000	13.405000	16.699500
249	2	26.810000	11.490000	14.844000
250	2	28.725000	13.405000	14.844000
251	1	28.725000	11.490000	16.699500
252	1	26.810000	13.405000	16.699500
253	1	30.640000	13.405000	16.699500
254	2	5.745000	17.235000	14.844000
255	1	5.745000	15.320000	16.699500
256	1	3.830000	17.235000	16.699500
257	2	7.660000	15.320000	14.844000
258	2	9.575000	17.235000	14.844000
259	1	9.575000	15.320000	16.699500
260	1	7.660000	17.235000	16.699500
261	2	11.490000	15.320000	14.844000
262	2	13.405000	17.235000	14.844000
263	1	13.405000	15.320000	16.699500
264	1	11.490000	17.235000	16.699500
265	2	15.320000	15.320000	14.844000
266	2	17.235000	17.235000	14.844000
267	1	17.235000	15.320000	16.699500
268	1	15.320000	17.235000	16.699500
269	2	19.150000	15.320000	14.844000
270	2	21.065000	17.235000	14.844000
271	1	21.065000	15.320000	16.699500
272	1	19.150000	17.235000	16.699500
273	2	22.980000	15.320000	14.844000
274	2	24.895000	17.235000	14.844000
275	1	24.895000	15.320000	16.699500
276	1	22.980000	17.235000	16.699500
277	2	26.810000	15.320000	14.844000
278	2	28.725000	17.235000	14.844000
279	1	28.725000	15.320000	16.699500
280	1	26.810000	17.235000	16.699500
281	2	30.640000	15.320000	14.844000
282	2	32.555000	17.235000	14.844000
283	1	32.555000	15.320000	16.699500
284	1	30.640000	17.235000	16.699500
285	1	34.470000	17.235000	16.699500
286	1	1.915000	19.150000	16.699500
287	2	3.830000	19.150000	14.844000
288	2	5.745000	21.065000	14.844000
289	1	5.745000	19.150000	16.699500
290	1	3.830000	21.065000	16.699500
291	2	7.660000	19.150000	14.844000
292	2	9.575000	21.065000	14.844000
293	1	9.575000	19.150000	16.699500
294	1	7.660000	21.065000	16.699500
295	2	11.490000	19.150000	14.844000
296	2	13.405000	21.065000	14.844000
297	1	13.405000	19.150000	16.699500
298	1	11.490000	21.065000	16.699500
299	2	15.320000	19.150000	14.844000
300	2	17.235000	21.065000	14.844000
301	1	17.235000	19.150000	16.699500
302	1	15.320000	21.065000	16.699500
303	2	19.150000	19.150000	14.844000
304	2	21.065000	21.065000	14.844000
305	1	21.065000	19.150000	16.699500
306	1	19.150000	21.065000	16.699500
307	2	22.980000	19.150000	14.844000
308	2	24.895000	21.065000	14.844000
309	1	24.895000	19.150000	16.699500
310	1	22.980000	21.065000	16.699500
311	2	26.810000	19.150000	14.844000
312	2	28.725000	21.065000	14.844000
313	1	28.725000	19.150000	16.699500
314	1	26.810000	21.065000	16.699500
315	2	30.640000	19.150000	14.844000
316	2	32.555000	21.065000	14.844000
317	1	32.555000	19.150000	16.699500
318	1	30.640000	21.065000	16.699500
319	2	34.470000	19.150000	14.844000
320	1	36.385000	19.150000	16.699500
321	1	34.470000	21.065000	16.699500
322	1	5.745000	22.980000	16.699500
323	2	7.660000	22.980000	14.844000
324	2	9.575000	24.895000	14.844000
325	1	9.575000	22.980000	16.699500
326	1	7.660000	24.895000	16.699500
327	2	11.490000	22.980000	14.844000
328	2	13.405000	24.895000	14.844000
329	1	13.405000	22.980000	16.699500
330	1	11.490000	24.895000	16.699500
331	2	15.320000	22.980000	14.844000
332	2	17.235000	24.895000	14.844000
333	1	17.235000	22.980000	16.699500
334	1	15.320000	24.895000	16.699500
335	2	19.150000	22.980000	14.844000
336	2	21.065000	24.895000	14.844000
337	1	21.065000	22.980000	16.699500
338	1	19.150000	24.895000	16.699500
339	2	22.980000	22.980000	14.844000
340	2	24.895000	24.895000	14.844000
341	1	24.895000	22.980000	16.699500
342	1	22.980000	24.895000	16.699500
343	2	26.810000	22.980000	14.844000
344	2	28.725000	24.895000	14.844000
345	1	28.725000	22.980000	16.699500
346	1	26.810000	24.895000	16.699500
347	2	30.640000	22.980000	14.844000
348	1	32.555000	22.980000	16.699500
349	1	30.640000	24.895000	16.699500
350	1	9.575000	26.810000	16.699500
351	2	11.490000	26.810000	14.844000
352	2	13.405000	28.725000	14.844000
353	1	13.405000	26.810000	16.699500
354	1	11.490000	28.725000	16.699500
355	2	15.320000	26.810000	14.844000
356	2	17.235000	28.725000	14.844000
357	1	17.235000	26.810000	16.699500
358	1	15.320000	28.725000	16.699500
359	2	19.150000	26.810000	14.844000
360	2	21.065000	28.725000	14.844000
361	1	21.065000	26.810000	16.699500
362	1	19.150000	28.725000	16.699500
363	2	22.980000	26.810000	14.844000
364	2	24.895000	28.725000	14.844000
365	1	24.895000	26.810000	16.699500
366	1	22.980000	28.725000	16.699500
367	2	26.810000	26.810000	14.844000
368	1	28.725000	26.810000	16.699500
369	1	26.810000	28.725000	16.699500
370	1	13.405000	30.640000	16.699500
371	2	15.320000	30.640000	14.844000
372	2	17.235000	32.555000	14.844000
373	1	17.235000	30.640000	16.699500
374	1	15.320000	32.555000	16.699500
375	2	19.150000	30.640000	14.844000
376	2	21.065000	32.555000	14.844000
377	1	21.065000	30.640000	16.699500
378	1	19.150000	32.555000	16.699500
379	2	22.980000	30.640000	14.844000
380	1	24.895000	30.640000	16.699500
381	1	22.980000	32.555000	16.699500
382	1	17.235000	34.470000	16.699500
383	2	19.150000	34.470000	14.844000
384	1	21.065000	34.470000	16.699500
385	1	19.150000	36.385000	16.699500
386	2	17.235000	1.915000	18.555000
387	2	19.150000	0.000000	18.555000
388	2	21.065000	1.915000	18.555000
389	1	19.150000	1.915000	20.410500
390	2	13.405000	5.745000	18.555000
391	2	15.320000	3.830000	18.555000
392	2	17.235000	5.745000	18.555000
393	1	17.235000	3.830000	20.410500
394	1	15.320000	5.745000	20.410500
395	2	19.150000	3.830000	18.555000
396	2	21.065000	5.745000	18.555000
397	1	21.065000	3.830000	20.410500
398	1	19.150000	5.745000	20.410500
399	2	22.980000	3.830000	18.555000
400	2	24.895000	5.745000	18.555000
401	1	22.980000	5.745000	20.410500
402	2	9.575000	9.575000	18.555000
403	2	11.490000	7.660000	18.555000
404	2	13.405000	9.575000	18.555000
405	1	13.405000	7.660000	20.410500
406	1	11.490000	9.575000	20.410500
407	2	15.320000	7.660000	18.555000
408	2	17.235000	9.575000	18.555000
409	1	17.235000	7.660000	20.410500
410	1	15.320000	9.575000	20.410500
411	2	19.150000	7.660000	18.555000
412	2	21.065000	9.575000	18.555000
413	1	21.065000	7.660000	20.410500
414	1	19.150000	9.575000	20.410500
415	2	22.980000	7.660000	18.555000
416	2	24.895000	9.575000	18.555000
417	1	24.895000	7.660000	20.410500
418	1	22.980000	9.575000	20.410500
419	2	26.810000	7.660000	18.555000
420	2	28.725000	9.575000	18.555000
421	1	26.810000	9.575000	20.410500
422	2	5.745000	13.405000	18.555000
423	2	7.660000	11.490000	18.555000
424	2	9.575000	13.405000	18.555000
425	1	9.575000	11.490000	20.410500
426	1	7.660000	13.405000	20.410500
427	2	11.490000	11.490000	18.555000
428	2	13.405000	13.405000	18.555000
429	1	13.405000	11.490000	20.410500
430	1	11.490000	13.405000	20.410500
431	2	15.320000	11.490000	18.555000
432	2	17.235000	13.405000	18.555000
433	1	17.235000	11.490000	20.410500
434	1	15.320000	13.405000	20.410500
435	2	19.150000	11.490000	18.555000
436	2	21.065000	13.405000	18.555000
437	1	21.065000	11.490000	20.410500
438	1	19.150000	13.405000	20.410500
439	2	22.980000	11.490000	18.555000
440	2	24.895000	13.405000	18.555000
441	1	24.895000	11.490000	20.410500
442	1	22.980000	13.405000	20.410500
443	2	26.810000	11.490000	18.555000
444	2	28.725000	13.405000	18.555000
445	1	28.725000	11.490000	20.410500
446	1	26.810000	13.405000	20.410500
447	2	30.640000	11.490000	18.555000
448	2	32.555000	13.405000	18.555000
449	1	30.640000	13.405000	20.410500
450	2	1.915000	17.235000	18.555000
451	2	3.830000	15.320000	18.555000
452	2	5.745000	17.235000	18.555000
453	1	5.745000	15.320000	20.410500
454	1	3.830000	17.235000	20.410500
455	2	7.660000	15.320000	18.555000
456	2	9.575000	17.235000	18.555000
457	1	9.575000	15.320000	20.410500
458	1	7.660000	17.235000	20.410500
459	2	11.490000	15.320000	18.555000
460	2	13.405000	17.235000	18.555000
461	1	13.405000	15.320000	20.410500
462	1	11.490000	17.235000	20.410500
463	2	15.320000	15.320000	18.555000
464	2	17.235000	17.235000	18.555000
465	1	17.235000	15.320000	20.410500
466	1	15.320000	17.235000	20.410500
467	2	19.150000	15.320000	18.555000
468	2	21.065000	17.235000	18.555000
469	1	21.065000	15.320000	20.410500
470	1	19.150000	17.235000	20.410500
471	2	22.980000	15.320000	18.555000
472	2	24.895000	17.235000	18.555000
473	1	24.895000	15.320000	20.410500
474	1	22.980000	17.235000	20.410500
475	2	26.810000	15.320000	18.555000
476	2	28.725000	17.235000	18.555000
477	1	28.725000	15.320000	20.410500
478	1	26.810000	17.235000	20.410500
479	2	30.640000	15.320000	18.555000
480	2	32.555000	17.235000	18.555000
481	1	32.555000	15.320000	20.410500
482	1	30.640000	17.235000	20.410500
483	2	34.470000	15.320000	18.555000
484	2	36.385000	17.235000	18.555000
485	1	34.470000	17.235000	20.410500
486	2	0.000000	19.150000	18.555000
487	2	1.915000	21.065000	18.555000
488	1	1.915000	19.150000	20.410500
489	2	3.830000	19.150000	18.555000
490	2	5.745000	21.065000	18.555000
491	1	5.745000	19.150000	20.410500
492	1	3.830000	21.065000	20.410500
493	2	7.660000	19.150000	18.555000
494	2	9.575000	21.065000	18.555000
495	1	9.575000	19.150000	20.410500
496	1	7.660000	21.065000	20.410500
497	2	11.490000	19.150000	18.555000
498	2	13.405000	21.065000	18.555000
499	1	13.405000	19.150000	20.410500
500	1	11.490000	21.065000	20.410500
501	2	15.320000	19.150000	18.555000
502	2	17.235000	21.065000	18.555000
503	1	17.235000	19.150000	20.410500
504	1	15.320000	21.065000	20.410500
505	2	19.150000	19.150000	18.555000
506	2	21.065000	21.065000	18.555000
507	1	21.065000	19.150000	20.410500
508	1	19.150000	21.065000	20.410500
509	2	22.980000	19.150000	18.555000
510	2	24.895000	21.065000	18.555000
511	1	24.895000	19.150000	20.410500
512	1	22.980000	21.065000	20.410500
513	2	26.810000	19.150000	18.555000
514	2	28.725000	21.065000	18.555000
515	1	28.725000	19.150000	20.410500
516	1	26.810000	21.065000	20.410500
517	2	30.640000	19.150000	18.555000
518	2	32.555000	21.065000	18.555000
519	1	32.555000	19.150000	20.410500
520	1	30.640000	21.065000	20.410500
521	2	34.470000	19.150000	18.555000
522	2	3.830000	22.980000	18.555000
523	2	5.745000	24.895000	18.555000
524	1	5.745000	22.980000	20.410500
525	2	7.660000	22.980000	18.555000
526	2	9.575000	24.895000	18.555000
527	1	9.575000	22.980000	20.410500
528	1	7.660000	24.895000	20.410500
529	2	11.490000	22.980000	18.555000
530	2	13.405000	24.895000	18.555000
531	1	13.405000	22.980000	20.410500
532	1	11.490000	24.895000	20.410500
533	2	15.320000	22.980000	18.555000
534	2	17.235000	24.895000	18.555000
535	1	17.235000	22.980000	20.410500
536	1	15.320000	24.895000	20.410500
537	2	19.150000	22.980000	18.555000
538	2	21.065000	24.895000	18.555000
539	1	21.065000	22.980000	20.410500
540	1	19.150000	24.895000	20.410500
541	2	22.980000	22.980000	18.555000
542	2	24.895000	24.895000	18.555000
543	1	24.895000	22.980000	20.410500
544	1	22.980000	24.895000	20.410500
545	2	26.810000	22.980000	18.555000
546	2	28.725000	24.895000	18.555000
547	1	28.725000	22.980000	20.410500
548	1	26.810000	24.895000	20.410500
549	2	30.640000	22.980000	18.555000
550	2	7.660000	26.810000	18.555000
551	2	9.575000	28.725000	18.555000
552	1	9.575000	26.810000	20.410500
553	2	11.490000	26.810000	18.555000
554	2	13.405000	28.725000	18.555000
555	1	13.405000	26.810000	20.410500
556	1	11.490000	28.725000	20.410500
557	2	15.320000	26.810000	18.555000
558	2	17.235000	28.725000	18.555000
559	1	17.235000	26.810000	20.410500
560	1	15.320000	28.725000	20.410500
561	2	19.150000	26.810000	18.555000
562	2	21.065000	28.725000	18.555000
563	1	21.065000	26.810000	20.410500
564	1	19.150000	28.725000	20.410500
565	2	22.980000	26.810000	18.555000
566	2	24.895000	28.725000	18.555000
567	1	24.895000	26.810000	20.410500
568	1	22.980000	28.725000	20.410500
569	2	26.810000	26.810000	18.555000
570	2	11.490000	30.640000	18.555000
571	2	13.405000	32.555000	18.555000
572	1	13.405000	30.640000	20.410500
573	2	15.320000	30.640000	18.555000
574	2	17.235000	32.555000	18.555000
575	1	17.235000	30.640000	20.410500
576	1	15.320000	32.555000	20.410500
577	2	19.150000	30.640000	18.555000
578	2	21.065000	32.555000	18.555000
579	1	21.065000	30.640000	20.410500
580	1	19.150000	32.555000	20.410500
581	2	22.980000	30.640000	18.555000
582	2	15.320000	34.470000	18.555000
583	2	17.235000	36.385000	18.555000
584	1	17.235000	34.470000	20.410500
585	2	19.150000	34.470000	18.555000
586	2	17.235000	5.745000	22.266000
587	2	19.150000	3.830000	22.266000
588	2	21.065000	5.745000	22.266000
589	1	19.150000	5.745000	24.121500
590	2	13.405000	9.575000	22.266000
591	2	15.320000	7.660000	22.266000
592	2	17.235000	9.575000	22.266000
593	1	17.235000	7.660000	24.121500
594	1	15.320000	9.575000	24.121500
595	2	19.150000	7.660000	22.266000
596	2	21.065000	9.575000	22.266000
597	1	21.065000	7.660000	24.121500
598	1	19.150000	9.575000	24.121500
599	2	22.980000	7.660000	22.266000
600	2	24.895000	9.575000	22.266000
601	1	22.980000	9.575000	24.121500
602	2	9.575000	13.405000	22.266000
603	2	11.490000	11.490000	22.266000
604	2	13.405000	13.405000	22.266000
605	1	13.405000	11.490000	24.121500
606	1	11.490000	13.405000	24.121500
607	2	15.320000	11.490000	22.266000
608	2	17.235000	13.405000	22.266000
609	1	17.235000	11.490000	24.121500
610	1	15.320000	13.405000	24.121500
611	2	19.150000	11.490000	22.266000
612	2	21.065000	13.405000	22.266000
613	1	21.065000	11.490000	24.121500
614	1	19.150000	13.405000	24.121500
615	2	22.980000	11.490000	22.266000
616	2	24.895000	13.405000	22.266000
617	1	24.895000	11.490000	24.121500
618	1	22.980000	13.405000	24.121500
619	2	26.810000	11.490000	22.266000
620	2	28.725000	13.405000	22.266000
621	1	26.810000	13.405000	24.121500
622	2	5.745000	17.235000	22.266000
623	2	7.660000	15.320000	22.266000
624	2	9.575000	17.235000	22.266000
625	1	9.575000	15.320000	24.121500
626	1	7.660000	17.235000	24.121500
627	2	11.490000	15.320000	22.266000
628	2	13.405000	17.235000	22.266000
629	1	13.405000	15.320000	24.121500
630	1	11.490000	17.235000	24.121500
631	2	15.320000	15.320000	22.266000
632	2	17.235000	17.235000	22.266000
633	1	17.235000	15.320000	24.121500
634	1	15.320000	17.235000	24.121500
635	2	19.150000	15.320000	22.266000
636	2	21.065000	17.235000	22.266000
637	1	21.065000	15.320000	24.121500
638	1	19.150000	17.235000	24.121500
639	2	22.980000	15.320000	22.266000
640	2	24.895000	17.235000	22.266000
641	1	24.895000	15.320000	24.121500
642	1	22.980000	17.235000	24.121500
643	2	26.810000	15.320000	22.266000
644	2	28.725000	17.235000	22.266000
645	1	28.725000	15.320000	24.121500
646	1	26.810000	17.235000	24.121500
647	2	30.640000	15.320000	22.266000
648	2	32.555000	17.235000	22.266000
649	1	30.640000	17.235000	24.121500
650	2	3.830000	19.150000	22.266000
651	2	5.745000	21.065000	22.266000
652	1	5.745000	19.150000	24.121500
653	2	7.660000	19.150000	22.266000
654	2	9.575000	21.065000	22.266000
655	1	9.575000	19.150000	24.121500
656	1	7.660000	21.065000	24.121500
657	2	11.490000	19.150000	22.266000
658	2	13.405000	21.065000	22.266000
659	1	13.405000	19.150000	24.121500
660	1	11.490000	21.065000	24.121500
661	2	15.320000	19.150000	22.266000
662	2	17.235000	21.065000	22.266000
663	1	17.235000	19.150000	24.121500
664	1	15.320000	21.065000	24.121500
665	2	19.150000	19.150000	22.266000
666	2	21.065000	21.065000	22.266000
667	1	21.065000	19.150000	24.121500
668	1	19.150000	21.065000	24.121500
669	2	22.980000	19.150000	22.266000
670	2	24.895000	21.065000	22.266000
671	1	24.895000	19.150000	24.121500
672	1	22.980000	21.065000	24.121500
673	2	26.810000	19.150000	22.266000
674	2	28.725000	21.065000	22.266000
675	1	28.725000	19.150000	24.121500
676	1	26.810000	21.065000	24.121500
677	2	30.640000	19.150000	22.266000
678	2	32.555000	21.065000	22.266000
679	2	34.470000	19.150000	22.266000
680	2	7.660000	22.980000	22.266000
681	2	9.575000	24.895000	22.266000
682	1	9.575000	22.980000	24.121500
683	2	11.490000	22.980000	22.266000
684	2	13.405000	24.895000	22.266000
685	1	13.405000	22.980000	24.121500
686	1	11.490000	24.895000	24.121500
687	2	15.320000	22.980000	22.266000
688	2	17.235000	24.895000	22.266000
689	1	17.235000	22.980000	24.121500
690	1	15.320000	24.895000	24.121500
691	2	19.150000	22.980000	22.266000
692	2	21.065000	24.895000	22.266000
693	1	21.065000	22.980000	24.121500
694	1	19.150000	24.895000	24.121500
695	2	22.980000	22.980000	22.266000
696	2	24.895000	24.895000	22.266000
697	1	24.895000	22.980000	24.121500
698	1	22.980000	24.895000	24.121500
699	2	26.810000	22.980000	22.266000
700	2	28.725000	24.895000	22.266000
701	1	26.810000	24.895000	24.121500
702	2	11.490000	26.810000	22.266000
703	2	13.405000	28.725000	22.266000
704	1	13.405000	26.810000	24.121500
705	2	15.320000	26.810000	22.266000
706	2	17.235000	28.725000	22.266000
707	1	17.235000	26.810000	24.121500
708	1	15.320000	28.725000	24.121500
709	2	19.150000	26.810000	22.266000
710	2	21.065000	28.725000	22.266000
711	1	21.065000	26.810000	24.121500
712	1	19.150000	28.725000	24.121500
713	2	22.980000	26.810000	22.266000
714	2	24.895000	28.725000	22.266000
715	1	24.895000	26.810000	24.121500
716	1	22.980000	28.725000	24.121500
717	2	26.810000	26.810000	22.266000
718	2	15.320000	30.640000	22.266000
719	2	17.235000	32.555000	22.266000
720	1	17.235000	30.640000	24.121500
721	2	19.150000	30.640000	22.266000
722	2	22.980000	30.640000	22.266000
723	2	17.235000	9.575000	25.977000
724	2	19.150000	7.660000	25.977000
725	2	21.065000	9.575000	25.977000
726	1	19.150000	9.575000	27.832500
727	2	13.405000	13.405000	25.977000
728	2	15.320000	11.490000	25.977000
729	2	17.235000	13.405000	25.977000
730	1	17.235000	11.490000	27.832500
731	1	15.320000	13.405000	27.832500
732	2	19.150000	11.490000	25.977000
733	2	21.065000	13.405000	25.977000
734	1	21.065000	11.490000	27.832500
735	1	19.150000	13.405000	27.832500
736	2	22.980000	11.490000	25.977000
737	2	24.895000	13.405000	25.977000
738	1	22.980000	13.405000	27.832500
739	2	9.575000	17.235000	25.977000
740	2	11.490000	15.320000	25.977000
741	2	13.405000	17.235000	25.977000
742	1	13.405000	15.320000	27.832500
743	1	11.490000	17.235000	27.832500
744	2	15.320000	15.320000	25.977000
745	2	17.235000	17.235000	25.977000
746	1	17.235000	15.320000	27.832500
747	1	15.320000	17.235000	27.832500
748	2	19.150000	15.320000	25.977000
749	2	21.065000	17.235000	25.977000
750	1	21.065000	15.320000	27.832500
751	1	19.150000	17.235000	27.832500
752	2	22.980000	15.320000	25.977000
753	2	24.895000	17.235000	25.977000
754	1	24.895000	15.320000	27.832500
755	1	22.980000	17.235000	27.832500
756	2	26.810000	15.320000	25.977000
757	2	28.725000	17.235000	25.977000
758	1	26.810000	17.235000	27.832500
759	2	7.660000	19.150000	25.977000
760	2	9.575000	21.065000	25.977000
761	1	9.575000	19.150000	27.832500
762	2	11.490000	19.150000	25.977000
763	2	13.405000	21.065000	25.977000
764	1	13.405000	19.150000	27.832500
765	1	11.490000	21.065000	27.832500
766	2	15.320000	19.150000	25.977000
767	2	17.235000	21.065000	25.977000
768	1	17.235000	19.150000	27.832500
769	1	15.320000	21.065000	27.832500
770	2	19.150000	19.150000	25.977000
771	2	21.065000	21.065000	25.977000
772	1	21.065000	19.150000	27.832500
773	1	19.150000	21.065000	27.832500
774	2	22.980000	19.150000	25.977000
775	2	24.895000	21.065000	25.977000
776	1	24.895000	19.150000	27.832500
777	1	22.980000	21.065000	27.832500
778	2	26.810000	19.150000	25.977000
779	2	28.725000	21.065000	25.977000
780	1	26.810000	21.065000	27.832500
781	2	30.640000	19.150000	25.977000
782	2	11.490000	22.980000	25.977000
783	2	13.405000	24.895000	25.977000
784	1	13.405000	22.980000	27.832500
785	2	15.320000	22.980000	25.977000
786	2	17.235000	24.895000	25.977000
787	1	17.235000	22.980000	27.832500
788	1	15.320000	24.895000	27.832500
789	2	19.150000	22.980000	25.977000
790	2	21.065000	24.895000	25.977000
791	1	21.065000	22.980000	27.832500
792	1	19.150000	24.895000	27.832500
793	2	22.980000	22.980000	25.977000
794	2	24.895000	24.895000	25.977000
795	1	24.895000	22.980000	27.832500
796	1	22.980000	24.895000	27.832500
797	2	26.810000	22.980000	25.977000
798	2	15.320000	26.810000	25.977000
799	2	17.235000	28.725000	25.977000
800	1	17.235000	26.810000	27.832500
801	2	19.150000	26.810000	25.977000
802	2	21.065000	28.725000	25.977000
803	1	21.065000	26.810000	27.832500
804	1	19.150000	28.725000	27.832500
805	2	22.980000	26.810000	25.977000
806	2	19.150000	30.640000	25.977000
807	2	17.235000	13.405000	29.688000
808	2	19.150000	11.490000	29.688000
809	2	21.065000	13.405000	29.688000
810	1	19.150000	13.405000	31.543500
811	2	13.405000	17.235000	29.688000
812	2	15.320000	15.320000	29.688000
813	2	17.235000	17.235000	29.688000
814	1	17.235000	15.320000	31.543500
815	1	15.320000	17.235000	31.543500
816	2	19.150000	15.320000	29.688000
817	2	21.065000	17.235000	29.688000
818	1	21.065000	15.320000	31.543500
819	1	19.150000	17.235000	31.543500
820	2	22.980000	15.320000	29.688000
821	2	24.895000	17.235000	29.688000
822	1	22.980000	17.235000	31.543500
823	2	11.490000	19.150000	29.688000
824	2	13.405000	21.065000	29.688000
825	1	13.405000	19.150000	31.543500
826	2	15.320000	19.150000	29.688000
827	2	17.235000	21.065000	29.688000
828	1	17.235000	19.150000	31.543500
829	1	15.320000	21.065000	31.543500
830	2	19.150000	19.150000	29.688000
831	2	21.065000	21.065000	29.688000
832	1	21.065000	19.150000	31.543500
833	1	19.150000	21.065000	31.543500
834	2	22.980000	19.150000	29.688000
835	2	24.895000	21.065000	29.688000
836	1	24.895000	19.150000	31.543500
837	1	22.980000	21.065000	31.543500
838	2	26.810000	19.150000	29.688000
839	2	15.320000	22.980000	29.688000
840	2	17.235000	24.895000	29.688000