FePt grain test

87666	atoms
2	atom types
0.0	118.730000	xlo xhi
0.0	118.730000	ylo yhi
0.0	115.041000	zlo zhi
0.0	0.0	0.0	 xy xz yz

Atoms

1	2	59.365000	13.405000	0.000000
2	1	59.365000	11.490000	1.855500
3	1	57.450000	13.405000	1.855500
4	1	61.280000	13.405000	1.855500
5	2	55.535000	17.235000	0.000000
6	1	55.535000	15.320000	1.855500
7	1	53.620000	17.235000	1.855500
8	2	57.450000	15.320000	0.000000
9	2	59.365000	17.235000	0.000000
10	1	59.365000	15.320000	1.855500
11	1	57.450000	17.235000	1.855500
12	2	61.280000	15.320000	0.000000
13	2	63.195000	17.235000	0.000000
14	1	63.195000	15.320000	1.855500
15	1	61.280000	17.235000	1.855500
16	1	65.110000	17.235000	1.855500
17	2	51.705000	21.065000	0.000000
18	1	51.705000	19.150000	1.855500
19	1	49.790000	21.065000	1.855500
20	2	53.620000	19.150000	0.000000
21	2	55.535000	21.065000	0.000000
22	1	55.535000	19.150000	1.855500
23	1	53.620000	21.065000	1.855500
24	2	57.450000	19.150000	0.000000
25	2	59.365000	21.065000	0.000000
26	1	59.365000	19.150000	1.855500
27	1	57.450000	21.065000	1.855500
28	2	61.280000	19.150000	0.000000
29	2	63.195000	21.065000	0.000000
30	1	63.195000	19.150000	1.855500
31	1	61.280000	21.065000	1.855500
32	2	65.110000	19.150000	0.000000
33	2	67.025000	21.065000	0.000000
34	1	67.025000	19.150000	1.855500
35	1	65.110000	21.065000	1.855500
36	1	68.940000	21.065000	1.855500
37	2	47.875000	24.895000	0.000000
38	1	47.875000	22.980000	1.855500
39	1	45.960000	24.895000	1.855500
40	2	49.790000	22.980000	0.000000
41	2	51.705000	24.895000	0.000000
42	1	51.705000	22.980000	1.855500
43	1	49.790000	24.895000	1.855500
44	2	53.620000	22.980000	0.000000
45	2	55.535000	24.895000	0.000000
46	1	55.535000	22.980000	1.855500
47	1	53.620000	24.895000	1.855500
48	2	57.450000	22.980000	0.000000
49	2	59.365000	24.895000	0.000000
50	1	59.365000	22.980000	1.855500
51	1	57.450000	24.895000	1.855500
52	2	61.280000	22.980000	0.000000
53	2	63.195000	24.895000	0.000000
54	1	63.195000	22.980000	1.855500
55	1	61.280000	24.895000	1.855500
56	2	65.110000	22.980000	0.000000
57	2	67.025000	24.895000	0.000000
58	1	67.025000	22.980000	1.855500
59	1	65.110000	24.895000	1.855500
60	2	68.940000	22.980000	0.000000
61	2	70.855000	24.895000	0.000000
62	1	70.855000	22.980000	1.855500
63	1	68.940000	24.895000	1.855500
64	1	72.770000	24.895000	1.855500
65	2	44.045000	28.725000	0.000000
66	1	44.045000	26.810000	1.855500
67	1	42.130000	28.725000	1.855500
68	2	45.960000	26.810000	0.000000
69	2	47.875000	28.725000	0.000000
70	1	47.875000	26.810000	1.855500
71	1	45.960000	28.725000	1.855500
72	2	49.790000	26.810000	0.000000
73	2	51.705000	28.725000	0.000000
74	1	51.705000	26.810000	1.855500
75	1	49.790000	28.725000	1.855500
76	2	53.620000	26.810000	0.000000
77	2	55.535000	28.725000	0.000000
78	1	55.535000	26.810000	1.855500
79	1	53.620000	28.725000	1.855500
80	2	57.450000	26.810000	0.000000
81	2	59.365000	28.725000	0.000000
82	1	59.365000	26.810000	1.855500
83	1	57.450000	28.725000	1.855500
84	2	61.280000	26.810000	0.000000
85	2	63.195000	28.725000	0.000000
86	1	63.195000	26.810000	1.855500
87	1	61.280000	28.725000	1.855500
88	2	65.110000	26.810000	0.000000
89	2	67.025000	28.725000	0.000000
90	1	67.025000	26.810000	1.855500
91	1	65.110000	28.725000	1.855500
92	2	68.940000	26.810000	0.000000
93	2	70.855000	28.725000	0.000000
94	1	70.855000	26.810000	1.855500
95	1	68.940000	28.725000	1.855500
96	2	72.770000	26.810000	0.000000
97	2	74.685000	28.725000	0.000000
98	1	74.685000	26.810000	1.855500
99	1	72.770000	28.725000	1.855500
100	1	76.600000	28.725000	1.855500
101	2	40.215000	32.555000	0.000000
102	1	40.215000	30.640000	1.855500
103	1	38.300000	32.555000	1.855500
104	2	42.130000	30.640000	0.000000
105	2	44.045000	32.555000	0.000000
106	1	44.045000	30.640000	1.855500
107	1	42.130000	32.555000	1.855500
108	2	45.960000	30.640000	0.000000
109	2	47.875000	32.555000	0.000000
110	1	47.875000	30.640000	1.855500
111	1	45.960000	32.555000	1.855500
112	2	49.790000	30.640000	0.000000
113	2	51.705000	32.555000	0.000000
114	1	51.705000	30.640000	1.855500
115	1	49.790000	32.555000	1.855500
116	2	53.620000	30.640000	0.000000
117	2	55.535000	32.555000	0.000000
118	1	55.535000	30.640000	1.855500
119	1	53.620000	32.555000	1.855500
120	2	57.450000	30.640000	0.000000
121	2	59.365000	32.555000	0.000000
122	1	59.365000	30.640000	1.855500
123	1	57.450000	32.555000	1.855500
124	2	61.280000	30.640000	0.000000
125	2	63.195000	32.555000	0.000000
126	1	63.195000	30.640000	1.855500
127	1	61.280000	32.555000	1.855500
128	2	65.110000	30.640000	0.000000
129	2	67.025000	32.555000	0.000000
130	1	67.025000	30.640000	1.855500
131	1	65.110000	32.555000	1.855500
132	2	68.940000	30.640000	0.000000
133	2	70.855000	32.555000	0.000000
134	1	70.855000	30.640000	1.855500
135	1	68.940000	32.555000	1.855500
136	2	72.770000	30.640000	0.000000
137	2	74.685000	32.555000	0.000000
138	1	74.685000	30.640000	1.855500
139	1	72.770000	32.555000	1.855500
140	2	76.600000	30.640000	0.000000
141	2	78.515000	32.555000	0.000000
142	1	78.515000	30.640000	1.855500
143	1	76.600000	32.555000	1.855500
144	1	80.430000	32.555000	1.855500
145	2	36.385000	36.385000	0.000000
146	1	36.385000	34.470000	1.855500
147	1	34.470000	36.385000	1.855500
148	2	38.300000	34.470000	0.000000
149	2	40.215000	36.385000	0.000000
150	1	40.215000	34.470000	1.855500
151	1	38.300000	36.385000	1.855500
152	2	42.130000	34.470000	0.000000
153	2	44.045000	36.385000	0.000000
154	1	44.045000	34.470000	1.855500
155	1	42.130000	36.385000	1.855500
156	2	45.960000	34.470000	0.000000
157	2	47.875000	36.385000	0.000000
158	1	47.875000	34.470000	1.855500
159	1	45.960000	36.385000	1.855500
160	2	49.790000	34.470000	0.000000
161	2	51.705000	36.385000	0.000000
162	1	51.705000	34.470000	1.855500
163	1	49.790000	36.385000	1.855500
164	2	53.620000	34.470000	0.000000
165	2	55.535000	36.385000	0.000000
166	1	55.535000	34.470000	1.855500
167	1	53.620000	36.385000	1.855500
168	2	57.450000	34.470000	0.000000
169	2	59.365000	36.385000	0.000000
170	1	59.365000	34.470000	1.855500
171	1	57.450000	36.385000	1.855500
172	2	61.280000	34.470000	0.000000
173	2	63.195000	36.385000	0.000000
174	1	63.195000	34.470000	1.855500
175	1	61.280000	36.385000	1.855500
176	2	65.110000	34.470000	0.000000
177	2	67.025000	36.385000	0.000000
178	1	67.025000	34.470000	1.855500
179	1	65.110000	36.385000	1.855500
180	2	68.940000	34.470000	0.000000
181	2	70.855000	36.385000	0.000000
182	1	70.855000	34.470000	1.855500
183	1	68.940000	36.385000	1.855500
184	2	72.770000	34.470000	0.000000
185	2	74.685000	36.385000	0.000000
186	1	74.685000	34.470000	1.855500
187	1	72.770000	36.385000	1.855500
188	2	76.600000	34.470000	0.000000
189	2	78.515000	36.385000	0.000000
190	1	78.515000	34.470000	1.855500
191	1	76.600000	36.385000	1.855500
192	2	80.430000	34.470000	0.000000
193	2	82.345000	36.385000	0.000000
194	1	82.345000	34.470000	1.855500
195	1	80.430000	36.385000	1.855500
196	1	84.260000	36.385000	1.855500
197	2	32.555000	40.215000	0.000000
198	1	32.555000	38.300000	1.855500
199	1	30.640000	40.215000	1.855500
200	2	34.470000	38.300000	0.000000
201	2	36.385000	40.215000	0.000000
202	1	36.385000	38.300000	1.855500
203	1	34.470000	40.215000	1.855500
204	2	38.300000	38.300000	0.000000
205	2	40.215000	40.215000	0.000000
206	1	40.215000	38.300000	1.855500
207	1	38.300000	40.215000	1.855500
208	2	42.130000	38.300000	0.000000
209	2	44.045000	40.215000	0.000000
210	1	44.045000	38.300000	1.855500
211	1	42.130000	40.215000	1.855500
212	2	45.960000	38.300000	0.000000
213	2	47.875000	40.215000	0.000000
214	1	47.875000	38.300000	1.855500
215	1	45.960000	40.215000	1.855500
216	2	49.790000	38.300000	0.000000
217	2	51.705000	40.215000	0.000000
218	1	51.705000	38.300000	1.855500
219	1	49.790000	40.215000	1.855500
220	2	53.620000	38.300000	0.000000
221	2	55.535000	40.215000	0.000000
222	1	55.535000	38.300000	1.855500
223	1	53.620000	40.215000	1.855500
224	2	57.450000	38.300000	0.000000
225	2	59.365000	40.215000	0.000000
226	1	59.365000	38.300000	1.855500
227	1	57.450000	40.215000	1.855500
228	2	61.280000	38.300000	0.000000
229	2	63.195000	40.215000	0.000000
230	1	63.195000	38.300000	1.855500
231	1	61.280000	40.215000	1.855500
232	2	65.110000	38.300000	0.000000
233	2	67.025000	40.215000	0.000000
234	1	67.025000	38.300000	1.855500
235	1	65.110000	40.215000	1.855500
236	2	68.940000	38.300000	0.000000
237	2	70.855000	40.215000	0.000000
238	1	70.855000	38.300000	1.855500
239	1	68.940000	40.215000	1.855500
240	2	72.770000	38.300000	0.000000
241	2	74.685000	40.215000	0.000000
242	1	74.685000	38.300000	1.855500
243	1	72.770000	40.215000	1.855500
244	2	76.600000	38.300000	0.000000
245	2	78.515000	40.215000	0.000000
246	1	78.515000	38.300000	1.855500
247	1	76.600000	40.215000	1.855500
248	2	80.430000	38.300000	0.000000
249	2	82.345000	40.215000	0.000000
250	1	82.345000	38.300000	1.855500
251	1	80.430000	40.215000	1.855500
252	2	84.260000	38.300000	0.000000
253	2	86.175000	40.215000	0.000000
254	1	86.175000	38.300000	1.855500
255	1	84.260000	40.215000	1.855500
256	1	88.090000	40.215000	1.855500
257	2	28.725000	44.045000	0.000000
258	1	28.725000	42.130000	1.855500
259	1	26.810000	44.045000	1.855500
260	2	30.640000	42.130000	0.000000
261	2	32.555000	44.045000	0.000000
262	1	32.555000	42.130000	1.855500
263	1	30.640000	44.045000	1.855500
264	2	34.470000	42.130000	0.000000
265	2	36.385000	44.045000	0.000000
266	1	36.385000	42.130000	1.855500
267	1	34.470000	44.045000	1.855500
268	2	38.300000	42.130000	0.000000
269	2	40.215000	44.045000	0.000000
270	1	40.215000	42.130000	1.855500
271	1	38.300000	44.045000	1.855500
272	2	42.130000	42.130000	0.000000
273	2	44.045000	44.045000	0.000000
274	1	44.045000	42.130000	1.855500
275	1	42.130000	44.045000	1.855500
276	2	45.960000	42.130000	0.000000
277	2	47.875000	44.045000	0.000000
278	1	47.875000	42.130000	1.855500
279	1	45.960000	44.045000	1.855500
280	2	49.790000	42.130000	0.000000
281	2	51.705000	44.045000	0.000000
282	1	51.705000	42.130000	1.855500
283	1	49.790000	44.045000	1.855500
284	2	53.620000	42.130000	0.000000
285	2	55.535000	44.045000	0.000000
286	1	55.535000	42.130000	1.855500
287	1	53.620000	44.045000	1.855500
288	2	57.450000	42.130000	0.000000
289	2	59.365000	44.045000	0.000000
290	1	59.365000	42.130000	1.855500
291	1	57.450000	44.045000	1.855500
292	2	61.280000	42.130000	0.000000
293	2	63.195000	44.045000	0.000000
294	1	63.195000	42.130000	1.855500
295	1	61.280000	44.045000	1.855500
296	2	65.110000	42.130000	0.000000
297	2	67.025000	44.045000	0.000000
298	1	67.025000	42.130000	1.855500
299	1	65.110000	44.045000	1.855500
300	2	68.940000	42.130000	0.000000
301	2	70.855000	44.045000	0.000000
302	1	70.855000	42.130000	1.855500
303	1	68.940000	44.045000	1.855500
304	2	72.770000	42.130000	0.000000
305	2	74.685000	44.045000	0.000000
306	1	74.685000	42.130000	1.855500
307	1	72.770000	44.045000	1.855500
308	2	76.600000	42.130000	0.000000
309	2	78.515000	44.045000	0.000000
310	1	78.515000	42.130000	1.855500
311	1	76.600000	44.045000	1.855500
312	2	80.430000	42.130000	0.000000
313	2	82.345000	44.045000	0.000000
314	1	82.345000	42.130000	1.855500
315	1	80.430000	44.045000	1.855500
316	2	84.260000	42.130000	0.000000
317	2	86.175000	44.045000	0.000000
318	1	86.175000	42.130000	1.855500
319	1	84.260000	44.045000	1.855500
320	2	88.090000	42.130000	0.000000
321	2	90.005000	44.045000	0.000000
322	1	90.005000	42.130000	1.855500
323	1	88.090000	44.045000	1.855500
324	1	91.920000	44.045000	1.855500
325	2	24.895000	47.875000	0.000000
326	1	24.895000	45.960000	1.855500
327	1	22.980000	47.875000	1.855500
328	2	26.810000	45.960000	0.000000
329	2	28.725000	47.875000	0.000000
330	1	28.725000	45.960000	1.855500
331	1	26.810000	47.875000	1.855500
332	2	30.640000	45.960000	0.000000
333	2	32.555000	47.875000	0.000000
334	1	32.555000	45.960000	1.855500
335	1	30.640000	47.875000	1.855500
336	2	34.470000	45.960000	0.000000
337	2	36.385000	47.875000	0.000000
338	1	36.385000	45.960000	1.855500
339	1	34.470000	47.875000	1.855500
340	2	38.300000	45.960000	0.000000
341	2	40.215000	47.875000	0.000000
342	1	40.215000	45.960000	1.855500
343	1	38.300000	47.875000	1.855500
344	2	42.130000	45.960000	0.000000
345	2	44.045000	47.875000	0.000000
346	1	44.045000	45.960000	1.855500
347	1	42.130000	47.875000	1.855500
348	2	45.960000	45.960000	0.000000
349	2	47.875000	47.875000	0.000000
350	1	47.875000	45.960000	1.855500
351	1	45.960000	47.875000	1.855500
352	2	49.790000	45.960000	0.000000
353	2	51.705000	47.875000	0.000000
354	1	51.705000	45.960000	1.855500
355	1	49.790000	47.875000	1.855500
356	2	53.620000	45.960000	0.000000
357	2	55.535000	47.875000	0.000000
358	1	55.535000	45.960000	1.855500
359	1	53.620000	47.875000	1.855500
360	2	57.450000	45.960000	0.000000
361	2	59.365000	47.875000	0.000000
362	1	59.365000	45.960000	1.855500
363	1	57.450000	47.875000	1.855500
364	2	61.280000	45.960000	0.000000
365	2	63.195000	47.875000	0.000000
366	1	63.195000	45.960000	1.855500
367	1	61.280000	47.875000	1.855500
368	2	65.110000	45.960000	0.000000
369	2	67.025000	47.875000	0.000000
370	1	67.025000	45.960000	1.855500
371	1	65.110000	47.875000	1.855500
372	2	68.940000	45.960000	0.000000
373	2	70.855000	47.875000	0.000000
374	1	70.855000	45.960000	1.855500
375	1	68.940000	47.875000	1.855500
376	2	72.770000	45.960000	0.000000
377	2	74.685000	47.875000	0.000000
378	1	74.685000	45.960000	1.855500
379	1	72.770000	47.875000	1.855500
380	2	76.600000	45.960000	0.000000
381	2	78.515000	47.875000	0.000000
382	1	78.515000	45.960000	1.855500
383	1	76.600000	47.875000	1.855500
384	2	80.430000	45.960000	0.000000
385	2	82.345000	47.875000	0.000000
386	1	82.345000	45.960000	1.855500
387	1	80.430000	47.875000	1.855500
388	2	84.260000	45.960000	0.000000
389	2	86.175000	47.875000	0.000000
390	1	86.175000	45.960000	1.855500
391	1	84.260000	47.875000	1.855500
392	2	88.090000	45.960000	0.000000
393	2	90.005000	47.875000	0.000000
394	1	90.005000	45.960000	1.855500
395	1	88.090000	47.875000	1.855500
396	2	91.920000	45.960000	0.000000
397	2	93.835000	47.875000	0.000000
398	1	93.835000	45.960000	1.855500
399	1	91.920000	47.875000	1.855500
400	1	95.750000	47.875000	1.855500
401	2	21.065000	51.705000	0.000000
402	1	21.065000	49.790000	1.855500
403	1	19.150000	51.705000	1.855500
404	2	22.980000	49.790000	0.000000
405	2	24.895000	51.705000	0.000000
406	1	24.895000	49.790000	1.855500
407	1	22.980000	51.705000	1.855500
408	2	26.810000	49.790000	0.000000
409	2	28.725000	51.705000	0.000000
410	1	28.725000	49.790000	1.855500
411	1	26.810000	51.705000	1.855500
412	2	30.640000	49.790000	0.000000
413	2	32.555000	51.705000	0.000000
414	1	32.555000	49.790000	1.855500
415	1	30.640000	51.705000	1.855500
416	2	34.470000	49.790000	0.000000
417	2	36.385000	51.705000	0.000000
418	1	36.385000	49.790000	1.855500
419	1	34.470000	51.705000	1.855500
420	2	38.300000	49.790000	0.000000
421	2	40.215000	51.705000	0.000000
422	1	40.215000	49.790000	1.855500
423	1	38.300000	51.705000	1.855500
424	2	42.130000	49.790000	0.000000
425	2	44.045000	51.705000	0.000000
426	1	44.045000	49.790000	1.855500
427	1	42.130000	51.705000	1.855500
428	2	45.960000	49.790000	0.000000
429	2	47.875000	51.705000	0.000000
430	1	47.875000	49.790000	1.855500
431	1	45.960000	51.705000	1.855500
432	2	49.790000	49.790000	0.000000
433	2	51.705000	51.705000	0.000000
434	1	51.705000	49.790000	1.855500
435	1	49.790000	51.705000	1.855500
436	2	53.620000	49.790000	0.000000
437	2	55.535000	51.705000	0.000000
438	1	55.535000	49.790000	1.855500
439	1	53.620000	51.705000	1.855500
440	2	57.450000	49.790000	0.000000
441	2	59.365000	51.705000	0.000000
442	1	59.365000	49.790000	1.855500
443	1	57.450000	51.705000	1.855500
444	2	61.280000	49.790000	0.000000
445	2	63.195000	51.705000	0.000000
446	1	63.195000	49.790000	1.855500
447	1	61.280000	51.705000	1.855500
448	2	65.110000	49.790000	0.000000
449	2	67.025000	51.705000	0.000000
450	1	67.025000	49.790000	1.855500
451	1	65.110000	51.705000	1.855500
452	2	68.940000	49.790000	0.000000
453	2	70.855000	51.705000	0.000000
454	1	70.855000	49.790000	1.855500
455	1	68.940000	51.705000	1.855500
456	2	72.770000	49.790000	0.000000
457	2	74.685000	51.705000	0.000000
458	1	74.685000	49.790000	1.855500
459	1	72.770000	51.705000	1.855500
460	2	76.600000	49.790000	0.000000
461	2	78.515000	51.705000	0.000000
462	1	78.515000	49.790000	1.855500
463	1	76.600000	51.705000	1.855500
464	2	80.430000	49.790000	0.000000
465	2	82.345000	51.705000	0.000000
466	1	82.345000	49.790000	1.855500
467	1	80.430000	51.705000	1.855500
468	2	84.260000	49.790000	0.000000
469	2	86.175000	51.705000	0.000000
470	1	86.175000	49.790000	1.855500
471	1	84.260000	51.705000	1.855500
472	2	88.090000	49.790000	0.000000
473	2	90.005000	51.705000	0.000000
474	1	90.005000	49.790000	1.855500
475	1	88.090000	51.705000	1.855500
476	2	91.920000	49.790000	0.000000
477	2	93.835000	51.705000	0.000000
478	1	93.835000	49.790000	1.855500
479	1	91.920000	51.705000	1.855500
480	2	95.750000	49.790000	0.000000
481	2	97.665000	51.705000	0.000000
482	1	97.665000	49.790000	1.855500
483	1	95.750000	51.705000	1.855500
484	1	99.580000	51.705000	1.855500
485	2	17.235000	55.535000	0.000000
486	1	17.235000	53.620000	1.855500
487	1	15.320000	55.535000	1.855500
488	2	19.150000	53.620000	0.000000
489	2	21.065000	55.535000	0.000000
490	1	21.065000	53.620000	1.855500
491	1	19.150000	55.535000	1.855500
492	2	22.980000	53.620000	0.000000
493	2	24.895000	55.535000	0.000000
494	1	24.895000	53.620000	1.855500
495	1	22.980000	55.535000	1.855500
496	2	26.810000	53.620000	0.000000
497	2	28.725000	55.535000	0.000000
498	1	28.725000	53.620000	1.855500
499	1	26.810000	55.535000	1.855500
500	2	30.640000	53.620000	0.000000
501	2	32.555000	55.535000	0.000000
502	1	32.555000	53.620000	1.855500
503	1	30.640000	55.535000	1.855500
504	2	34.470000	53.620000	0.000000
505	2	36.385000	55.535000	0.000000
506	1	36.385000	53.620000	1.855500
507	1	34.470000	55.535000	1.855500
508	2	38.300000	53.620000	0.000000
509	2	40.215000	55.535000	0.000000
510	1	40.215000	53.620000	1.855500
511	1	38.300000	55.535000	1.855500
512	2	42.130000	53.620000	0.000000
513	2	44.045000	55.535000	0.000000
514	1	44.045000	53.620000	1.855500
515	1	42.130000	55.535000	1.855500
516	2	45.960000	53.620000	0.000000
517	2	47.875000	55.535000	0.000000
518	1	47.875000	53.620000	1.855500
519	1	45.960000	55.535000	1.855500
520	2	49.790000	53.620000	0.000000
521	2	51.705000	55.535000	0.000000
522	1	51.705000	53.620000	1.855500
523	1	49.790000	55.535000	1.855500
524	2	53.620000	53.620000	0.000000
525	2	55.535000	55.535000	0.000000
526	1	55.535000	53.620000	1.855500
527	1	53.620000	55.535000	1.855500
528	2	57.450000	53.620000	0.000000
529	2	59.365000	55.535000	0.000000
530	1	59.365000	53.620000	1.855500
531	1	57.450000	55.535000	1.855500
532	2	61.280000	53.620000	0.000000
533	2	63.195000	55.535000	0.000000
534	1	63.195000	53.620000	1.855500
535	1	61.280000	55.535000	1.855500
536	2	65.110000	53.620000	0.000000
537	2	67.025000	55.535000	0.000000
538	1	67.025000	53.620000	1.855500
539	1	65.110000	55.535000	1.855500
540	2	68.940000	53.620000	0.000000
541	2	70.855000	55.535000	0.000000
542	1	70.855000	53.620000	1.855500
543	1	68.940000	55.535000	1.855500
544	2	72.770000	53.620000	0.000000
545	2	74.685000	55.535000	0.000000
546	1	74.685000	53.620000	1.855500
547	1	72.770000	55.535000	1.855500
548	2	76.600000	53.620000	0.000000
549	2	78.515000	55.535000	0.000000
550	1	78.515000	53.620000	1.855500
551	1	76.600000	55.535000	1.855500
552	2	80.430000	53.620000	0.000000
553	2	82.345000	55.535000	0.000000
554	1	82.345000	53.620000	1.855500
555	1	80.430000	55.535000	1.855500
556	2	84.260000	53.620000	0.000000
557	2	86.175000	55.535000	0.000000
558	1	86.175000	53.620000	1.855500
559	1	84.260000	55.535000	1.855500
560	2	88.090000	53.620000	0.000000
561	2	90.005000	55.535000	0.000000
562	1	90.005000	53.620000	1.855500
563	1	88.090000	55.535000	1.855500
564	2	91.920000	53.620000	0.000000
565	2	93.835000	55.535000	0.000000
566	1	93.835000	53.620000	1.855500
567	1	91.920000	55.535000	1.855500
568	2	95.750000	53.620000	0.000000
569	2	97.665000	55.535000	0.000000
570	1	97.665000	53.620000	1.855500
571	1	95.750000	55.535000	1.855500
572	2	99.580000	53.620000	0.000000
573	2	101.495000	55.535000	0.000000
574	1	101.495000	53.620000	1.855500
575	1	99.580000	55.535000	1.855500
576	1	103.410000	55.535000	1.855500
577	2	13.405000	59.365000	0.000000
578	1	13.405000	57.450000	1.855500
579	1	11.490000	59.365000	1.855500
580	2	15.320000	57.450000	0.000000
581	2	17.235000	59.365000	0.000000
582	1	17.235000	57.450000	1.855500
583	1	15.320000	59.365000	1.855500
584	2	19.150000	57.450000	0.000000
585	2	21.065000	59.365000	0.000000
586	1	21.065000	57.450000	1.855500
587	1	19.150000	59.365000	1.855500
588	2	22.980000	57.450000	0.000000
589	2	24.895000	59.365000	0.000000
590	1	24.895000	57.450000	1.855500
591	1	22.980000	59.365000	1.855500
592	2	26.810000	57.450000	0.000000
593	2	28.725000	59.365000	0.000000
594	1	28.725000	57.450000	1.855500
595	1	26.810000	59.365000	1.855500
596	2	30.640000	57.450000	0.000000
597	2	32.555000	59.365000	0.000000
598	1	32.555000	57.450000	1.855500
599	1	30.640000	59.365000	1.855500
600	2	34.470000	57.450000	0.000000
601	2	36.385000	59.365000	0.000000
602	1	36.385000	57.450000	1.855500
603	1	34.470000	59.365000	1.855500
604	2	38.300000	57.450000	0.000000
605	2	40.215000	59.365000	0.000000
606	1	40.215000	57.450000	1.855500
607	1	38.300000	59.365000	1.855500
608	2	42.130000	57.450000	0.000000
609	2	44.045000	59.365000	0.000000
610	1	44.045000	57.450000	1.855500
611	1	42.130000	59.365000	1.855500
612	2	45.960000	57.450000	0.000000
613	2	47.875000	59.365000	0.000000
614	1	47.875000	57.450000	1.855500
615	1	45.960000	59.365000	1.855500
616	2	49.790000	57.450000	0.000000
617	2	51.705000	59.365000	0.000000
618	1	51.705000	57.450000	1.855500
619	1	49.790000	59.365000	1.855500
620	2	53.620000	57.450000	0.000000
621	2	55.535000	59.365000	0.000000
622	1	55.535000	57.450000	1.855500
623	1	53.620000	59.365000	1.855500
624	2	57.450000	57.450000	0.000000
625	2	59.365000	59.365000	0.000000
626	1	59.365000	57.450000	1.855500
627	1	57.450000	59.365000	1.855500
628	2	61.280000	57.450000	0.000000
629	2	63.195000	59.365000	0.000000
630	1	63.195000	57.450000	1.855500
631	1	61.280000	59.365000	1.855500
632	2	65.110000	57.450000	0.000000
633	2	67.025000	59.365000	0.000000
634	1	67.025000	57.450000	1.855500
635	1	65.110000	59.365000	1.855500
636	2	68.940000	57.450000	0.000000
637	2	70.855000	59.365000	0.000000
638	1	70.855000	57.450000	1.855500
639	1	68.940000	59.365000	1.855500
640	2	72.770000	57.450000	0.000000
641	2	74.685000	59.365000	0.000000
642	1	74.685000	57.450000	1.855500
643	1	72.770000	59.365000	1.855500
644	2	76.600000	57.450000	0.000000
645	2	78.515000	59.365000	0.000000
646	1	78.515000	57.450000	1.855500
647	1	76.600000	59.365000	1.855500
648	2	80.430000	57.450000	0.000000
649	2	82.345000	59.365000	0.000000
650	1	82.345000	57.450000	1.855500
651	1	80.430000	59.365000	1.855500
652	2	84.260000	57.450000	0.000000
653	2	86.175000	59.365000	0.000000
654	1	86.175000	57.450000	1.855500
655	1	84.260000	59.365000	1.855500
656	2	88.090000	57.450000	0.000000
657	2	90.005000	59.365000	0.000000
658	1	90.005000	57.450000	1.855500
659	1	88.090000	59.365000	1.855500
660	2	91.920000	57.450000	0.000000
661	2	93.835000	59.365000	0.000000
662	1	93.835000	57.450000	1.855500
663	1	91.920000	59.365000	1.855500
664	2	95.750000	57.450000	0.000000
665	2	97.665000	59.365000	0.000000
666	1	97.665000	57.450000	1.855500
667	1	95.750000	59.365000	1.855500
668	2	99.580000	57.450000	0.000000
669	2	101.495000	59.365000	0.000000
670	1	101.495000	57.450000	1.855500
671	1	99.580000	59.365000	1.855500
672	2	103.410000	57.450000	0.000000
673	2	105.325000	59.365000	0.000000
674	1	105.325000	57.450000	1.855500
675	1	103.410000	59.365000	1.855500
676	1	107.240000	59.365000	1.855500
677	1	13.405000	61.280000	1.855500
678	2	15.320000	61.280000	0.000000
679	2	17.235000	63.195000	0.000000
680	1	17.235000	61.280000	1.855500
681	1	15.320000	63.195000	1.855500
682	2	19.150000	61.280000	0.000000
683	2	21.065000	63.195000	0.000000
684	1	21.065000	61.280000	1.855500
685	1	19.150000	63.195000	1.855500
686	2	22.980000	61.280000	0.000000
687	2	24.895000	63.195000	0.000000
688	1	24.895000	61.280000	1.855500
689	1	22.980000	63.195000	1.855500
690	2	26.810000	61.280000	0.000000
691	2	28.725000	63.195000	0.000000
692	1	28.725000	61.280000	1.855500
693	1	26.810000	63.195000	1.855500
694	2	30.640000	61.280000	0.000000
695	2	32.555000	63.195000	0.000000
696	1	32.555000	61.280000	1.855500
697	1	30.640000	63.195000	1.855500
698	2	34.470000	61.280000	0.000000
699	2	36.385000	63.195000	0.000000
700	1	36.385000	61.280000	1.855500
701	1	34.470000	63.195000	1.855500
702	2	38.300000	61.280000	0.000000
703	2	40.215000	63.195000	0.000000
704	1	40.215000	61.280000	1.855500
705	1	38.300000	63.195000	1.855500
706	2	42.130000	61.280000	0.000000
707	2	44.045000	63.195000	0.000000
708	1	44.045000	61.280000	1.855500
709	1	42.130000	63.195000	1.855500
710	2	45.960000	61.280000	0.000000
711	2	47.875000	63.195000	0.000000
712	1	47.875000	61.280000	1.855500
713	1	45.960000	63.195000	1.855500
714	2	49.790000	61.280000	0.000000
715	2	51.705000	63.195000	0.000000
716	1	51.705000	61.280000	1.855500
717	1	49.790000	63.195000	1.855500
718	2	53.620000	61.280000	0.000000
719	2	55.535000	63.195000	0.000000
720	1	55.535000	61.280000	1.855500
721	1	53.620000	63.195000	1.855500
722	2	57.450000	61.280000	0.000000
723	2	59.365000	63.195000	0.000000
724	1	59.365000	61.280000	1.855500
725	1	57.450000	63.195000	1.855500
726	2	61.280000	61.280000	0.000000
727	2	63.195000	63.195000	0.000000
728	1	63.195000	61.280000	1.855500
729	1	61.280000	63.195000	1.855500
730	2	65.110000	61.280000	0.000000
731	2	67.025000	63.195000	0.000000
732	1	67.025000	61.280000	1.855500
733	1	65.110000	63.195000	1.855500
734	2	68.940000	61.280000	0.000000
735	2	70.855000	63.195000	0.000000
736	1	70.855000	61.280000	1.855500
737	1	68.940000	63.195000	1.855500
738	2	72.770000	61.280000	0.000000
739	2	74.685000	63.195000	0.000000
740	1	74.685000	61.280000	1.855500
741	1	72.770000	63.195000	1.855500
742	2	76.600000	61.280000	0.000000
743	2	78.515000	63.195000	0.000000
744	1	78.515000	61.280000	1.855500
745	1	76.600000	63.195000	1.855500
746	2	80.430000	61.280000	0.000000
747	2	82.345000	63.195000	0.000000
748	1	82.345000	61.280000	1.855500
749	1	80.430000	63.195000	1.855500
750	2	84.260000	61.280000	0.000000
751	2	86.175000	63.195000	0.000000
752	1	86.175000	61.280000	1.855500
753	1	84.260000	63.195000	1.855500
754	2	88.090000	61.280000	0.000000
755	2	90.005000	63.195000	0.000000
756	1	90.005000	61.280000	1.855500
757	1	88.090000	63.195000	1.855500
758	2	91.920000	61.280000	0.000000
759	2	93.835000	63.195000	0.000000
760	1	93.835000	61.280000	1.855500
761	1	91.920000	63.195000	1.855500
762	2	95.750000	61.280000	0.000000
763	2	97.665000	63.195000	0.000000
764	1	97.665000	61.280000	1.855500
765	1	95.750000	63.195000	1.855500
766	2	99.580000	61.280000	0.000000
767	2	101.495000	63.195000	0.000000
768	1	101.495000	61.280000	1.855500
769	1	99.580000	63.195000	1.855500
770	2	103.410000	61.280000	0.000000
771	1	105.325000	61.280000	1.855500
772	1	103.410000	63.195000	1.855500
773	1	17.235000	65.110000	1.855500
774	2	19.150000	65.110000	0.000000
775	2	21.065000	67.025000	0.000000
776	1	21.065000	65.110000	1.855500
777	1	19.150000	67.025000	1.855500
778	2	22.980000	65.110000	0.000000
779	2	24.895000	67.025000	0.000000
780	1	24.895000	65.110000	1.855500
781	1	22.980000	67.025000	1.855500
782	2	26.810000	65.110000	0.000000
783	2	28.725000	67.025000	0.000000
784	1	28.725000	65.110000	1.855500
785	1	26.810000	67.025000	1.855500
786	2	30.640000	65.110000	0.000000
787	2	32.555000	67.025000	0.000000
788	1	32.555000	65.110000	1.855500
789	1	30.640000	67.025000	1.855500
790	2	34.470000	65.110000	0.000000
791	2	36.385000	67.025000	0.000000
792	1	36.385000	65.110000	1.855500
793	1	34.470000	67.025000	1.855500
794	2	38.300000	65.110000	0.000000
795	2	40.215000	67.025000	0.000000
796	1	40.215000	65.110000	1.855500
797	1	38.300000	67.025000	1.855500
798	2	42.130000	65.110000	0.000000
799	2	44.045000	67.025000	0.000000
800	1	44.045000	65.110000	1.855500
801	1	42.130000	67.025000	1.855500
802	2	45.960000	65.110000	0.000000
803	2	47.875000	67.025000	0.000000
804	1	47.875000	65.110000	1.855500
805	1	45.960000	67.025000	1.855500
806	2	49.790000	65.110000	0.000000
807	2	51.705000	67.025000	0.000000
808	1	51.705000	65.110000	1.855500
809	1	49.790000	67.025000	1.855500
810	2	53.620000	65.110000	0.000000
811	2	55.535000	67.025000	0.000000
812	1	55.535000	65.110000	1.855500
813	1	53.620000	67.025000	1.855500
814	2	57.450000	65.110000	0.000000
815	2	59.365000	67.025000	0.000000
816	1	59.365000	65.110000	1.855500
817	1	57.450000	67.025000	1.855500
818	2	61.280000	65.110000	0.000000
819	2	63.195000	67.025000	0.000000
820	1	63.195000	65.110000	1.855500
821	1	61.280000	67.025000	1.855500
822	2	65.110000	65.110000	0.000000
823	2	67.025000	67.025000	0.000000
824	1	67.025000	65.110000	1.855500
825	1	65.110000	67.025000	1.855500
826	2	68.940000	65.110000	0.000000
827	2	70.855000	67.025000	0.000000
828	1	70.855000	65.110000	1.855500
829	1	68.940000	67.025000	1.855500
830	2	72.770000	65.110000	0.000000
831	2	74.685000	67.025000	0.000000
832	1	74.685000	65.110000	1.855500
833	1	72.770000	67.025000	1.855500
834	2	76.600000	65.110000	0.000000
835	2	78.515000	67.025000	0.000000
836	1	78.515000	65.110000	1.855500
837	1	76.600000	67.025000	1.855500
838	2	80.430000	65.110000	0.000000
839	2	82.345000	67.025000	0.000000
840	1	82.345000	65.110000	1.855500
841	1	80.430000	67.025000	1.855500
842	2	84.260000	65.110000	0.000000
843	2	86.175000	67.025000	0.000000
844	1	86.175000	65.110000	1.855500
845	1	84.260000	67.025000	1.855500
846	2	88.090000	65.110000	0.000000
847	2	90.005000	67.025000	0.000000
848	1	90.005000	65.110000	1.855500
849	1	88.090000	67.025000	1.855500
850	2	91.920000	65.110000	0.000000
851	2	93.835000	67.025000	0.000000
852	1	93.835000	65.110000	1.855500
853	1	91.920000	67.025000	1.855500
854	2	95.750000	65.110000	0.000000
855	2	97.665000	67.025000	0.000000