FePt grain test

19871	atoms
2	atom types
0.0	72.770000	xlo xhi
0.0	72.770000	ylo yhi
0.0	70.509000	zlo zhi
0.0	0.0	0.0	 xy xz yz

Atoms

1	2	36.385000	9.575000	0.000000
2	1	36.385000	7.660000	1.855500
3	1	34.470000	9.575000	1.855500
4	1	38.300000	9.575000	1.855500
5	2	32.555000	13.405000	0.000000
6	1	32.555000	11.490000	1.855500
7	1	30.640000	13.405000	1.855500
8	2	34.470000	11.490000	0.000000
9	2	36.385000	13.405000	0.000000
10	1	36.385000	11.490000	1.855500
11	1	34.470000	13.405000	1.855500
12	2	38.300000	11.490000	0.000000
13	2	40.215000	13.405000	0.000000
14	1	40.215000	11.490000	1.855500
15	1	38.300000	13.405000	1.855500
16	1	42.130000	13.405000	1.855500
17	2	28.725000	17.235000	0.000000
18	1	28.725000	15.320000	1.855500
19	1	26.810000	17.235000	1.855500
20	2	30.640000	15.320000	0.000000
21	2	32.555000	17.235000	0.000000
22	1	32.555000	15.320000	1.855500
23	1	30.640000	17.235000	1.855500
24	2	34.470000	15.320000	0.000000
25	2	36.385000	17.235000	0.000000
26	1	36.385000	15.320000	1.855500
27	1	34.470000	17.235000	1.855500
28	2	38.300000	15.320000	0.000000
29	2	40.215000	17.235000	0.000000
30	1	40.215000	15.320000	1.855500
31	1	38.300000	17.235000	1.855500
32	2	42.130000	15.320000	0.000000
33	2	44.045000	17.235000	0.000000
34	1	44.045000	15.320000	1.855500
35	1	42.130000	17.235000	1.855500
36	1	45.960000	17.235000	1.855500
37	2	24.895000	21.065000	0.000000
38	1	24.895000	19.150000	1.855500
39	1	22.980000	21.065000	1.855500
40	2	26.810000	19.150000	0.000000
41	2	28.725000	21.065000	0.000000
42	1	28.725000	19.150000	1.855500
43	1	26.810000	21.065000	1.855500
44	2	30.640000	19.150000	0.000000
45	2	32.555000	21.065000	0.000000
46	1	32.555000	19.150000	1.855500
47	1	30.640000	21.065000	1.855500
48	2	34.470000	19.150000	0.000000
49	2	36.385000	21.065000	0.000000
50	1	36.385000	19.150000	1.855500
51	1	34.470000	21.065000	1.855500
52	2	38.300000	19.150000	0.000000
53	2	40.215000	21.065000	0.000000
54	1	40.215000	19.150000	1.855500
55	1	38.300000	21.065000	1.855500
56	2	42.130000	19.150000	0.000000
57	2	44.045000	21.065000	0.000000
58	1	44.045000	19.150000	1.855500
59	1	42.130000	21.065000	1.855500
60	2	45.960000	19.150000	0.000000
61	2	47.875000	21.065000	0.000000
62	1	47.875000	19.150000	1.855500
63	1	45.960000	21.065000	1.855500
64	1	49.790000	21.065000	1.855500
65	2	21.065000	24.895000	0.000000
66	1	21.065000	22.980000	1.855500
67	1	19.150000	24.895000	1.855500
68	2	22.980000	22.980000	0.000000
69	2	24.895000	24.895000	0.000000
70	1	24.895000	22.980000	1.855500
71	1	22.980000	24.895000	1.855500
72	2	26.810000	22.980000	0.000000
73	2	28.725000	24.895000	0.000000
74	1	28.725000	22.980000	1.855500
75	1	26.810000	24.895000	1.855500
76	2	30.640000	22.980000	0.000000
77	2	32.555000	24.895000	0.000000
78	1	32.555000	22.980000	1.855500
79	1	30.640000	24.895000	1.855500
80	2	34.470000	22.980000	0.000000
81	2	36.385000	24.895000	0.000000
82	1	36.385000	22.980000	1.855500
83	1	34.470000	24.895000	1.855500
84	2	38.300000	22.980000	0.000000
85	2	40.215000	24.895000	0.000000
86	1	40.215000	22.980000	1.855500
87	1	38.300000	24.895000	1.855500
88	2	42.130000	22.980000	0.000000
89	2	44.045000	24.895000	0.000000
90	1	44.045000	22.980000	1.855500
91	1	42.130000	24.895000	1.855500
92	2	45.960000	22.980000	0.000000
93	2	47.875000	24.895000	0.000000
94	1	47.875000	22.980000	1.855500
95	1	45.960000	24.895000	1.855500
96	2	49.790000	22.980000	0.000000
97	2	51.705000	24.895000	0.000000
98	1	51.705000	22.980000	1.855500
99	1	49.790000	24.895000	1.855500
100	1	53.620000	24.895000	1.855500
101	2	17.235000	28.725000	0.000000
102	1	17.235000	26.810000	1.855500
103	1	15.320000	28.725000	1.855500
104	2	19.150000	26.810000	0.000000
105	2	21.065000	28.725000	0.000000
106	1	21.065000	26.810000	1.855500
107	1	19.150000	28.725000	1.855500
108	2	22.980000	26.810000	0.000000
109	2	24.895000	28.725000	0.000000
110	1	24.895000	26.810000	1.855500
111	1	22.980000	28.725000	1.855500
112	2	26.810000	26.810000	0.000000
113	2	28.725000	28.725000	0.000000
114	1	28.725000	26.810000	1.855500
115	1	26.810000	28.725000	1.855500
116	2	30.640000	26.810000	0.000000
117	2	32.555000	28.725000	0.000000
118	1	32.555000	26.810000	1.855500
119	1	30.640000	28.725000	1.855500
120	2	34.470000	26.810000	0.000000
121	2	36.385000	28.725000	0.000000
122	1	36.385000	26.810000	1.855500
123	1	34.470000	28.725000	1.855500
124	2	38.300000	26.810000	0.000000
125	2	40.215000	28.725000	0.000000
126	1	40.215000	26.810000	1.855500
127	1	38.300000	28.725000	1.855500
128	2	42.130000	26.810000	0.000000
129	2	44.045000	28.725000	0.000000
130	1	44.045000	26.810000	1.855500
131	1	42.130000	28.725000	1.855500
132	2	45.960000	26.810000	0.000000
133	2	47.875000	28.725000	0.000000
134	1	47.875000	26.810000	1.855500
135	1	45.960000	28.725000	1.855500
136	2	49.790000	26.810000	0.000000
137	2	51.705000	28.725000	0.000000
138	1	51.705000	26.810000	1.855500
139	1	49.790000	28.725000	1.855500
140	2	53.620000	26.810000	0.000000
141	2	55.535000	28.725000	0.000000
142	1	55.535000	26.810000	1.855500
143	1	53.620000	28.725000	1.855500
144	1	57.450000	28.725000	1.855500
145	2	13.405000	32.555000	0.000000
146	1	13.405000	30.640000	1.855500
147	1	11.490000	32.555000	1.855500
148	2	15.320000	30.640000	0.000000
149	2	17.235000	32.555000	0.000000
150	1	17.235000	30.640000	1.855500
151	1	15.320000	32.555000	1.855500
152	2	19.150000	30.640000	0.000000
153	2	21.065000	32.555000	0.000000
154	1	21.065000	30.640000	1.855500
155	1	19.150000	32.555000	1.855500
156	2	22.980000	30.640000	0.000000
157	2	24.895000	32.555000	0.000000
158	1	24.895000	30.640000	1.855500
159	1	22.980000	32.555000	1.855500
160	2	26.810000	30.640000	0.000000
161	2	28.725000	32.555000	0.000000
162	1	28.725000	30.640000	1.855500
163	1	26.810000	32.555000	1.855500
164	2	30.640000	30.640000	0.000000
165	2	32.555000	32.555000	0.000000
166	1	32.555000	30.640000	1.855500
167	1	30.640000	32.555000	1.855500
168	2	34.470000	30.640000	0.000000
169	2	36.385000	32.555000	0.000000
170	1	36.385000	30.640000	1.855500
171	1	34.470000	32.555000	1.855500
172	2	38.300000	30.640000	0.000000
173	2	40.215000	32.555000	0.000000
174	1	40.215000	30.640000	1.855500
175	1	38.300000	32.555000	1.855500
176	2	42.130000	30.640000	0.000000
177	2	44.045000	32.555000	0.000000
178	1	44.045000	30.640000	1.855500
179	1	42.130000	32.555000	1.855500
180	2	45.960000	30.640000	0.000000
181	2	47.875000	32.555000	0.000000
182	1	47.875000	30.640000	1.855500
183	1	45.960000	32.555000	1.855500
184	2	49.790000	30.640000	0.000000
185	2	51.705000	32.555000	0.000000
186	1	51.705000	30.640000	1.855500
187	1	49.790000	32.555000	1.855500
188	2	53.620000	30.640000	0.000000
189	2	55.535000	32.555000	0.000000
190	1	55.535000	30.640000	1.855500
191	1	53.620000	32.555000	1.855500
192	2	57.450000	30.640000	0.000000
193	2	59.365000	32.555000	0.000000
194	1	59.365000	30.640000	1.855500
195	1	57.450000	32.555000	1.855500
196	1	61.280000	32.555000	1.855500
197	2	9.575000	36.385000	0.000000
198	1	9.575000	34.470000	1.855500
199	1	7.660000	36.385000	1.855500
200	2	11.490000	34.470000	0.000000
201	2	13.405000	36.385000	0.000000
202	1	13.405000	34.470000	1.855500
203	1	11.490000	36.385000	1.855500
204	2	15.320000	34.470000	0.000000
205	2	17.235000	36.385000	0.000000
206	1	17.235000	34.470000	1.855500
207	1	15.320000	36.385000	1.855500
208	2	19.150000	34.470000	0.000000
209	2	21.065000	36.385000	0.000000
210	1	21.065000	34.470000	1.855500
211	1	19.150000	36.385000	1.855500
212	2	22.980000	34.470000	0.000000
213	2	24.895000	36.385000	0.000000
214	1	24.895000	34.470000	1.855500
215	1	22.980000	36.385000	1.855500
216	2	26.810000	34.470000	0.000000
217	2	28.725000	36.385000	0.000000
218	1	28.725000	34.470000	1.855500
219	1	26.810000	36.385000	1.855500
220	2	30.640000	34.470000	0.000000
221	2	32.555000	36.385000	0.000000
222	1	32.555000	34.470000	1.855500
223	1	30.640000	36.385000	1.855500
224	2	34.470000	34.470000	0.000000
225	2	36.385000	36.385000	0.000000
226	1	36.385000	34.470000	1.855500
227	1	34.470000	36.385000	1.855500
228	2	38.300000	34.470000	0.000000
229	2	40.215000	36.385000	0.000000
230	1	40.215000	34.470000	1.855500
231	1	38.300000	36.385000	1.855500
232	2	42.130000	34.470000	0.000000
233	2	44.045000	36.385000	0.000000
234	1	44.045000	34.470000	1.855500
235	1	42.130000	36.385000	1.855500
236	2	45.960000	34.470000	0.000000
237	2	47.875000	36.385000	0.000000
238	1	47.875000	34.470000	1.855500
239	1	45.960000	36.385000	1.855500
240	2	49.790000	34.470000	0.000000
241	2	51.705000	36.385000	0.000000
242	1	51.705000	34.470000	1.855500
243	1	49.790000	36.385000	1.855500
244	2	53.620000	34.470000	0.000000
245	2	55.535000	36.385000	0.000000
246	1	55.535000	34.470000	1.855500
247	1	53.620000	36.385000	1.855500
248	2	57.450000	34.470000	0.000000
249	2	59.365000	36.385000	0.000000
250	1	59.365000	34.470000	1.855500
251	1	57.450000	36.385000	1.855500
252	2	61.280000	34.470000	0.000000
253	2	63.195000	36.385000	0.000000
254	1	63.195000	34.470000	1.855500
255	1	61.280000	36.385000	1.855500
256	1	65.110000	36.385000	1.855500
257	1	9.575000	38.300000	1.855500
258	2	11.490000	38.300000	0.000000
259	2	13.405000	40.215000	0.000000
260	1	13.405000	38.300000	1.855500
261	1	11.490000	40.215000	1.855500
262	2	15.320000	38.300000	0.000000
263	2	17.235000	40.215000	0.000000
264	1	17.235000	38.300000	1.855500
265	1	15.320000	40.215000	1.855500
266	2	19.150000	38.300000	0.000000
267	2	21.065000	40.215000	0.000000
268	1	21.065000	38.300000	1.855500
269	1	19.150000	40.215000	1.855500
270	2	22.980000	38.300000	0.000000
271	2	24.895000	40.215000	0.000000
272	1	24.895000	38.300000	1.855500
273	1	22.980000	40.215000	1.855500
274	2	26.810000	38.300000	0.000000
275	2	28.725000	40.215000	0.000000
276	1	28.725000	38.300000	1.855500
277	1	26.810000	40.215000	1.855500
278	2	30.640000	38.300000	0.000000
279	2	32.555000	40.215000	0.000000
280	1	32.555000	38.300000	1.855500
281	1	30.640000	40.215000	1.855500
282	2	34.470000	38.300000	0.000000
283	2	36.385000	40.215000	0.000000
284	1	36.385000	38.300000	1.855500
285	1	34.470000	40.215000	1.855500
286	2	38.300000	38.300000	0.000000
287	2	40.215000	40.215000	0.000000
288	1	40.215000	38.300000	1.855500
289	1	38.300000	40.215000	1.855500
290	2	42.130000	38.300000	0.000000
291	2	44.045000	40.215000	0.000000
292	1	44.045000	38.300000	1.855500
293	1	42.130000	40.215000	1.855500
294	2	45.960000	38.300000	0.000000
295	2	47.875000	40.215000	0.000000
296	1	47.875000	38.300000	1.855500
297	1	45.960000	40.215000	1.855500
298	2	49.790000	38.300000	0.000000
299	2	51.705000	40.215000	0.000000
300	1	51.705000	38.300000	1.855500
301	1	49.790000	40.215000	1.855500
302	2	53.620000	38.300000	0.000000
303	2	55.535000	40.215000	0.000000
304	1	55.535000	38.300000	1.855500
305	1	53.620000	40.215000	1.855500
306	2	57.450000	38.300000	0.000000
307	2	59.365000	40.215000	0.000000
308	1	59.365000	38.300000	1.855500
309	1	57.450000	40.215000	1.855500
310	2	61.280000	38.300000	0.000000
311	1	63.195000	38.300000	1.855500
312	1	61.280000	40.215000	1.855500
313	1	13.405000	42.130000	1.855500
314	2	15.320000	42.130000	0.000000
315	2	17.235000	44.045000	0.000000
316	1	17.235000	42.130000	1.855500
317	1	15.320000	44.045000	1.855500
318	2	19.150000	42.130000	0.000000
319	2	21.065000	44.045000	0.000000
320	1	21.065000	42.130000	1.855500
321	1	19.150000	44.045000	1.855500
322	2	22.980000	42.130000	0.000000
323	2	24.895000	44.045000	0.000000
324	1	24.895000	42.130000	1.855500
325	1	22.980000	44.045000	1.855500
326	2	26.810000	42.130000	0.000000
327	2	28.725000	44.045000	0.000000
328	1	28.725000	42.130000	1.855500
329	1	26.810000	44.045000	1.855500
330	2	30.640000	42.130000	0.000000
331	2	32.555000	44.045000	0.000000
332	1	32.555000	42.130000	1.855500
333	1	30.640000	44.045000	1.855500
334	2	34.470000	42.130000	0.000000
335	2	36.385000	44.045000	0.000000
336	1	36.385000	42.130000	1.855500
337	1	34.470000	44.045000	1.855500
338	2	38.300000	42.130000	0.000000
339	2	40.215000	44.045000	0.000000
340	1	40.215000	42.130000	1.855500
341	1	38.300000	44.045000	1.855500
342	2	42.130000	42.130000	0.000000
343	2	44.045000	44.045000	0.000000
344	1	44.045000	42.130000	1.855500
345	1	42.130000	44.045000	1.855500
346	2	45.960000	42.130000	0.000000
347	2	47.875000	44.045000	0.000000
348	1	47.875000	42.130000	1.855500
349	1	45.960000	44.045000	1.855500
350	2	49.790000	42.130000	0.000000
351	2	51.705000	44.045000	0.000000
352	1	51.705000	42.130000	1.855500
353	1	49.790000	44.045000	1.855500
354	2	53.620000	42.130000	0.000000
355	2	55.535000	44.045000	0.000000
356	1	55.535000	42.130000	1.855500
357	1	53.620000	44.045000	1.855500
358	2	57.450000	42.130000	0.000000
359	1	59.365000	42.130000	1.855500
360	1	57.450000	44.045000	1.855500
361	1	17.235000	45.960000	1.855500
362	2	19.150000	45.960000	0.000000
363	2	21.065000	47.875000	0.000000
364	1	21.065000	45.960000	1.855500
365	1	19.150000	47.875000	1.855500
366	2	22.980000	45.960000	0.000000
367	2	24.895000	47.875000	0.000000
368	1	24.895000	45.960000	1.855500
369	1	22.980000	47.875000	1.855500
370	2	26.810000	45.960000	0.000000
371	2	28.725000	47.875000	0.000000
372	1	28.725000	45.960000	1.855500
373	1	26.810000	47.875000	1.855500
374	2	30.640000	45.960000	0.000000
375	2	32.555000	47.875000	0.000000
376	1	32.555000	45.960000	1.855500
377	1	30.640000	47.875000	1.855500
378	2	34.470000	45.960000	0.000000
379	2	36.385000	47.875000	0.000000
380	1	36.385000	45.960000	1.855500
381	1	34.470000	47.875000	1.855500
382	2	38.300000	45.960000	0.000000
383	2	40.215000	47.875000	0.000000
384	1	40.215000	45.960000	1.855500
385	1	38.300000	47.875000	1.855500
386	2	42.130000	45.960000	0.000000
387	2	44.045000	47.875000	0.000000
388	1	44.045000	45.960000	1.855500
389	1	42.130000	47.875000	1.855500
390	2	45.960000	45.960000	0.000000
391	2	47.875000	47.875000	0.000000
392	1	47.875000	45.960000	1.855500
393	1	45.960000	47.875000	1.855500
394	2	49.790000	45.960000	0.000000
395	2	51.705000	47.875000	0.000000
396	1	51.705000	45.960000	1.855500
397	1	49.790000	47.875000	1.855500
398	2	53.620000	45.960000	0.000000
399	1	55.535000	45.960000	1.855500
400	1	53.620000	47.875000	1.855500
401	1	21.065000	49.790000	1.855500
402	2	22.980000	49.790000	0.000000
403	2	24.895000	51.705000	0.000000
404	1	24.895000	49.790000	1.855500
405	1	22.980000	51.705000	1.855500
406	2	26.810000	49.790000	0.000000
407	2	28.725000	51.705000	0.000000
408	1	28.725000	49.790000	1.855500
409	1	26.810000	51.705000	1.855500
410	2	30.640000	49.790000	0.000000
411	2	32.555000	51.705000	0.000000
412	1	32.555000	49.790000	1.855500
413	1	30.640000	51.705000	1.855500
414	2	34.470000	49.790000	0.000000
415	2	36.385000	51.705000	0.000000
416	1	36.385000	49.790000	1.855500
417	1	34.470000	51.705000	1.855500
418	2	38.300000	49.790000	0.000000
419	2	40.215000	51.705000	0.000000
420	1	40.215000	49.790000	1.855500
421	1	38.300000	51.705000	1.855500
422	2	42.130000	49.790000	0.000000
423	2	44.045000	51.705000	0.000000
424	1	44.045000	49.790000	1.855500
425	1	42.130000	51.705000	1.855500
426	2	45.960000	49.790000	0.000000
427	2	47.875000	51.705000	0.000000
428	1	47.875000	49.790000	1.855500
429	1	45.960000	51.705000	1.855500
430	2	49.790000	49.790000	0.000000
431	1	51.705000	49.790000	1.855500
432	1	49.790000	51.705000	1.855500
433	1	24.895000	53.620000	1.855500
434	2	26.810000	53.620000	0.000000
435	2	28.725000	55.535000	0.000000
436	1	28.725000	53.620000	1.855500
437	1	26.810000	55.535000	1.855500
438	2	30.640000	53.620000	0.000000
439	2	32.555000	55.535000	0.000000
440	1	32.555000	53.620000	1.855500
441	1	30.640000	55.535000	1.855500
442	2	34.470000	53.620000	0.000000
443	2	36.385000	55.535000	0.000000
444	1	36.385000	53.620000	1.855500
445	1	34.470000	55.535000	1.855500
446	2	38.300000	53.620000	0.000000
447	2	40.215000	55.535000	0.000000
448	1	40.215000	53.620000	1.855500
449	1	38.300000	55.535000	1.855500
450	2	42.130000	53.620000	0.000000
451	2	44.045000	55.535000	0.000000
452	1	44.045000	53.620000	1.855500
453	1	42.130000	55.535000	1.855500
454	2	45.960000	53.620000	0.000000
455	1	47.875000	53.620000	1.855500
456	1	45.960000	55.535000	1.855500
457	1	28.725000	57.450000	1.855500
458	2	30.640000	57.450000	0.000000
459	2	32.555000	59.365000	0.000000
460	1	32.555000	57.450000	1.855500
461	1	30.640000	59.365000	1.855500
462	2	34.470000	57.450000	0.000000
463	2	36.385000	59.365000	0.000000
464	1	36.385000	57.450000	1.855500
465	1	34.470000	59.365000	1.855500
466	2	38.300000	57.450000	0.000000
467	2	40.215000	59.365000	0.000000
468	1	40.215000	57.450000	1.855500
469	1	38.300000	59.365000	1.855500
470	2	42.130000	57.450000	0.000000
471	1	44.045000	57.450000	1.855500
472	1	42.130000	59.365000	1.855500
473	1	32.555000	61.280000	1.855500
474	2	34.470000	61.280000	0.000000
475	2	36.385000	63.195000	0.000000
476	1	36.385000	61.280000	1.855500
477	1	34.470000	63.195000	1.855500
478	2	38.300000	61.280000	0.000000
479	1	40.215000	61.280000	1.855500
480	1	38.300000	63.195000	1.855500
481	1	36.385000	65.110000	1.855500
482	2	36.385000	5.745000	3.711000
483	1	36.385000	3.830000	5.566500
484	1	34.470000	5.745000	5.566500
485	1	38.300000	5.745000	5.566500
486	2	32.555000	9.575000	3.711000
487	1	32.555000	7.660000	5.566500
488	1	30.640000	9.575000	5.566500
489	2	34.470000	7.660000	3.711000
490	2	36.385000	9.575000	3.711000
491	1	36.385000	7.660000	5.566500
492	1	34.470000	9.575000	5.566500
493	2	38.300000	7.660000	3.711000
494	2	40.215000	9.575000	3.711000
495	1	40.215000	7.660000	5.566500
496	1	38.300000	9.575000	5.566500
497	1	42.130000	9.575000	5.566500
498	2	28.725000	13.405000	3.711000
499	1	28.725000	11.490000	5.566500
500	1	26.810000	13.405000	5.566500
501	2	30.640000	11.490000	3.711000
502	2	32.555000	13.405000	3.711000
503	1	32.555000	11.490000	5.566500
504	1	30.640000	13.405000	5.566500
505	2	34.470000	11.490000	3.711000
506	2	36.385000	13.405000	3.711000
507	1	36.385000	11.490000	5.566500
508	1	34.470000	13.405000	5.566500
509	2	38.300000	11.490000	3.711000
510	2	40.215000	13.405000	3.711000
511	1	40.215000	11.490000	5.566500
512	1	38.300000	13.405000	5.566500
513	2	42.130000	11.490000	3.711000
514	2	44.045000	13.405000	3.711000
515	1	44.045000	11.490000	5.566500
516	1	42.130000	13.405000	5.566500
517	1	45.960000	13.405000	5.566500
518	2	24.895000	17.235000	3.711000
519	1	24.895000	15.320000	5.566500
520	1	22.980000	17.235000	5.566500
521	2	26.810000	15.320000	3.711000
522	2	28.725000	17.235000	3.711000
523	1	28.725000	15.320000	5.566500
524	1	26.810000	17.235000	5.566500
525	2	30.640000	15.320000	3.711000
526	2	32.555000	17.235000	3.711000
527	1	32.555000	15.320000	5.566500
528	1	30.640000	17.235000	5.566500
529	2	34.470000	15.320000	3.711000
530	2	36.385000	17.235000	3.711000
531	1	36.385000	15.320000	5.566500
532	1	34.470000	17.235000	5.566500
533	2	38.300000	15.320000	3.711000
534	2	40.215000	17.235000	3.711000
535	1	40.215000	15.320000	5.566500
536	1	38.300000	17.235000	5.566500
537	2	42.130000	15.320000	3.711000
538	2	44.045000	17.235000	3.711000
539	1	44.045000	15.320000	5.566500
540	1	42.130000	17.235000	5.566500
541	2	45.960000	15.320000	3.711000
542	2	47.875000	17.235000	3.711000
543	1	47.875000	15.320000	5.566500
544	1	45.960000	17.235000	5.566500
545	1	49.790000	17.235000	5.566500
546	2	21.065000	21.065000	3.711000
547	1	21.065000	19.150000	5.566500
548	1	19.150000	21.065000	5.566500
549	2	22.980000	19.150000	3.711000
550	2	24.895000	21.065000	3.711000
551	1	24.895000	19.150000	5.566500
552	1	22.980000	21.065000	5.566500
553	2	26.810000	19.150000	3.711000
554	2	28.725000	21.065000	3.711000
555	1	28.725000	19.150000	5.566500
556	1	26.810000	21.065000	5.566500
557	2	30.640000	19.150000	3.711000
558	2	32.555000	21.065000	3.711000
559	1	32.555000	19.150000	5.566500
560	1	30.640000	21.065000	5.566500
561	2	34.470000	19.150000	3.711000
562	2	36.385000	21.065000	3.711000
563	1	36.385000	19.150000	5.566500
564	1	34.470000	21.065000	5.566500
565	2	38.300000	19.150000	3.711000
566	2	40.215000	21.065000	3.711000
567	1	40.215000	19.150000	5.566500
568	1	38.300000	21.065000	5.566500
569	2	42.130000	19.150000	3.711000
570	2	44.045000	21.065000	3.711000
571	1	44.045000	19.150000	5.566500
572	1	42.130000	21.065000	5.566500
573	2	45.960000	19.150000	3.711000
574	2	47.875000	21.065000	3.711000
575	1	47.875000	19.150000	5.566500
576	1	45.960000	21.065000	5.566500
577	2	49.790000	19.150000	3.711000
578	2	51.705000	21.065000	3.711000
579	1	51.705000	19.150000	5.566500
580	1	49.790000	21.065000	5.566500
581	1	53.620000	21.065000	5.566500
582	2	17.235000	24.895000	3.711000
583	1	17.235000	22.980000	5.566500
584	1	15.320000	24.895000	5.566500
585	2	19.150000	22.980000	3.711000
586	2	21.065000	24.895000	3.711000
587	1	21.065000	22.980000	5.566500
588	1	19.150000	24.895000	5.566500
589	2	22.980000	22.980000	3.711000
590	2	24.895000	24.895000	3.711000
591	1	24.895000	22.980000	5.566500
592	1	22.980000	24.895000	5.566500
593	2	26.810000	22.980000	3.711000
594	2	28.725000	24.895000	3.711000
595	1	28.725000	22.980000	5.566500
596	1	26.810000	24.895000	5.566500
597	2	30.640000	22.980000	3.711000
598	2	32.555000	24.895000	3.711000
599	1	32.555000	22.980000	5.566500
600	1	30.640000	24.895000	5.566500
601	2	34.470000	22.980000	3.711000
602	2	36.385000	24.895000	3.711000
603	1	36.385000	22.980000	5.566500
604	1	34.470000	24.895000	5.566500
605	2	38.300000	22.980000	3.711000
606	2	40.215000	24.895000	3.711000
607	1	40.215000	22.980000	5.566500
608	1	38.300000	24.895000	5.566500
609	2	42.130000	22.980000	3.711000
610	2	44.045000	24.895000	3.711000
611	1	44.045000	22.980000	5.566500
612	1	42.130000	24.895000	5.566500
613	2	45.960000	22.980000	3.711000
614	2	47.875000	24.895000	3.711000
615	1	47.875000	22.980000	5.566500
616	1	45.960000	24.895000	5.566500
617	2	49.790000	22.980000	3.711000
618	2	51.705000	24.895000	3.711000
619	1	51.705000	22.980000	5.566500
620	1	49.790000	24.895000	5.566500
621	2	53.620000	22.980000	3.711000
622	2	55.535000	24.895000	3.711000
623	1	55.535000	22.980000	5.566500
624	1	53.620000	24.895000	5.566500
625	1	57.450000	24.895000	5.566500
626	2	13.405000	28.725000	3.711000
627	1	13.405000	26.810000	5.566500
628	1	11.490000	28.725000	5.566500
629	2	15.320000	26.810000	3.711000
630	2	17.235000	28.725000	3.711000
631	1	17.235000	26.810000	5.566500
632	1	15.320000	28.725000	5.566500
633	2	19.150000	26.810000	3.711000
634	2	21.065000	28.725000	3.711000
635	1	21.065000	26.810000	5.566500
636	1	19.150000	28.725000	5.566500
637	2	22.980000	26.810000	3.711000
638	2	24.895000	28.725000	3.711000
639	1	24.895000	26.810000	5.566500
640	1	22.980000	28.725000	5.566500
641	2	26.810000	26.810000	3.711000
642	2	28.725000	28.725000	3.711000
643	1	28.725000	26.810000	5.566500
644	1	26.810000	28.725000	5.566500
645	2	30.640000	26.810000	3.711000
646	2	32.555000	28.725000	3.711000
647	1	32.555000	26.810000	5.566500
648	1	30.640000	28.725000	5.566500
649	2	34.470000	26.810000	3.711000
650	2	36.385000	28.725000	3.711000
651	1	36.385000	26.810000	5.566500
652	1	34.470000	28.725000	5.566500
653	2	38.300000	26.810000	3.711000
654	2	40.215000	28.725000	3.711000
655	1	40.215000	26.810000	5.566500
656	1	38.300000	28.725000	5.566500
657	2	42.130000	26.810000	3.711000
658	2	44.045000	28.725000	3.711000
659	1	44.045000	26.810000	5.566500
660	1	42.130000	28.725000	5.566500
661	2	45.960000	26.810000	3.711000
662	2	47.875000	28.725000	3.711000
663	1	47.875000	26.810000	5.566500
664	1	45.960000	28.725000	5.566500
665	2	49.790000	26.810000	3.711000
666	2	51.705000	28.725000	3.711000
667	1	51.705000	26.810000	5.566500
668	1	49.790000	28.725000	5.566500
669	2	53.620000	26.810000	3.711000
670	2	55.535000	28.725000	3.711000
671	1	55.535000	26.810000	5.566500
672	1	53.620000	28.725000	5.566500
673	2	57.450000	26.810000	3.711000
674	2	59.365000	28.725000	3.711000
675	1	59.365000	26.810000	5.566500
676	1	57.450000	28.725000	5.566500
677	1	61.280000	28.725000	5.566500
678	2	9.575000	32.555000	3.711000
679	1	9.575000	30.640000	5.566500
680	1	7.660000	32.555000	5.566500
681	2	11.490000	30.640000	3.711000
682	2	13.405000	32.555000	3.711000
683	1	13.405000	30.640000	5.566500
684	1	11.490000	32.555000	5.566500
685	2	15.320000	30.640000	3.711000
686	2	17.235000	32.555000	3.711000
687	1	17.235000	30.640000	5.566500
688	1	15.320000	32.555000	5.566500
689	2	19.150000	30.640000	3.711000
690	2	21.065000	32.555000	3.711000
691	1	21.065000	30.640000	5.566500
692	1	19.150000	32.555000	5.566500
693	2	22.980000	30.640000	3.711000
694	2	24.895000	32.555000	3.711000
695	1	24.895000	30.640000	5.566500
696	1	22.980000	32.555000	5.566500
697	2	26.810000	30.640000	3.711000
698	2	28.725000	32.555000	3.711000
699	1	28.725000	30.640000	5.566500
700	1	26.810000	32.555000	5.566500
701	2	30.640000	30.640000	3.711000
702	2	32.555000	32.555000	3.711000
703	1	32.555000	30.640000	5.566500
704	1	30.640000	32.555000	5.566500
705	2	34.470000	30.640000	3.711000
706	2	36.385000	32.555000	3.711000
707	1	36.385000	30.640000	5.566500
708	1	34.470000	32.555000	5.566500
709	2	38.300000	30.640000	3.711000
710	2	40.215000	32.555000	3.711000
711	1	40.215000	30.640000	5.566500
712	1	38.300000	32.555000	5.566500
713	2	42.130000	30.640000	3.711000
714	2	44.045000	32.555000	3.711000
715	1	44.045000	30.640000	5.566500
716	1	42.130000	32.555000	5.566500
717	2	45.960000	30.640000	3.711000
718	2	47.875000	32.555000	3.711000
719	1	47.875000	30.640000	5.566500
720	1	45.960000	32.555000	5.566500
721	2	49.790000	30.640000	3.711000
722	2	51.705000	32.555000	3.711000
723	1	51.705000	30.640000	5.566500
724	1	49.790000	32.555000	5.566500
725	2	53.620000	30.640000	3.711000
726	2	55.535000	32.555000	3.711000
727	1	55.535000	30.640000	5.566500
728	1	53.620000	32.555000	5.566500
729	2	57.450000	30.640000	3.711000
730	2	59.365000	32.555000	3.711000
731	1	59.365000	30.640000	5.566500
732	1	57.450000	32.555000	5.566500
733	2	61.280000	30.640000	3.711000
734	2	63.195000	32.555000	3.711000
735	1	63.195000	30.640000	5.566500
736	1	61.280000	32.555000	5.566500
737	1	65.110000	32.555000	5.566500
738	2	5.745000	36.385000	3.711000
739	1	5.745000	34.470000	5.566500
740	1	3.830000	36.385000	5.566500
741	2	7.660000	34.470000	3.711000
742	2	9.575000	36.385000	3.711000
743	1	9.575000	34.470000	5.566500
744	1	7.660000	36.385000	5.566500
745	2	11.490000	34.470000	3.711000
746	2	13.405000	36.385000	3.711000
747	1	13.405000	34.470000	5.566500
748	1	11.490000	36.385000	5.566500
749	2	15.320000	34.470000	3.711000
750	2	17.235000	36.385000	3.711000
751	1	17.235000	34.470000	5.566500
752	1	15.320000	36.385000	5.566500
753	2	19.150000	34.470000	3.711000
754	2	21.065000	36.385000	3.711000
755	1	21.065000	34.470000	5.566500
756	1	19.150000	36.385000	5.566500
757	2	22.980000	34.470000	3.711000
758	2	24.895000	36.385000	3.711000
759	1	24.895000	34.470000	5.566500
760	1	22.980000	36.385000	5.566500
761	2	26.810000	34.470000	3.711000
762	2	28.725000	36.385000	3.711000
763	1	28.725000	34.470000	5.566500
764	1	26.810000	36.385000	5.566500
765	2	30.640000	34.470000	3.711000
766	2	32.555000	36.385000	3.711000
767	1	32.555000	34.470000	5.566500
768	1	30.640000	36.385000	5.566500
769	2	34.470000	34.470000	3.711000
770	2	36.385000	36.385000	3.711000
771	1	36.385000	34.470000	5.566500
772	1	34.470000	36.385000	5.566500
773	2	38.300000	34.470000	3.711000
774	2	40.215000	36.385000	3.711000
775	1	40.215000	34.470000	5.566500
776	1	38.300000	36.385000	5.566500
777	2	42.130000	34.470000	3.711000
778	2	44.045000	36.385000	3.711000
779	1	44.045000	34.470000	5.566500
780	1	42.130000	36.385000	5.566500
781	2	45.960000	34.470000	3.711000
782	2	47.875000	36.385000	3.711000
783	1	47.875000	34.470000	5.566500
784	1	45.960000	36.385000	5.566500
785	2	49.790000	34.470000	3.711000
786	2	51.705000	36.385000	3.711000
787	1	51.705000	34.470000	5.566500
788	1	49.790000	36.385000	5.566500
789	2	53.620000	34.470000	3.711000
790	2	55.535000	36.385000	3.711000
791	1	55.535000	34.470000	5.566500
792	1	53.620000	36.385000	5.566500
793	2	57.450000	34.470000	3.711000
794	2	59.365000	36.385000	3.711000
795	1	59.365000	34.470000	5.566500
796	1	57.450000	36.385000	5.566500
797	2	61.280000	34.470000	3.711000
798	2	63.195000	36.385000	3.711000
799	1	63.195000	34.470000	5.566500
800	1	61.280000	36.385000	5.566500
801	2	65.110000	34.470000	3.711000
802	2	67.025000	36.385000	3.711000
803	1	67.025000	34.470000	5.566500
804	1	65.110000	36.385000	5.566500
805	1	68.940000	36.385000	5.566500
806	1	5.745000	38.300000	5.566500
807	2	7.660000	38.300000	3.711000
808	2	9.575000	40.215000	3.711000
809	1	9.575000	38.300000	5.566500
810	1	7.660000	40.215000	5.566500
811	2	11.490000	38.300000	3.711000
812	2	13.405000	40.215000	3.711000
813	1	13.405000	38.300000	5.566500
814	1	11.490000	40.215000	5.566500
815	2	15.320000	38.300000	3.711000
816	2	17.235000	40.215000	3.711000
817	1	17.235000	38.300000	5.566500
818	1	15.320000	40.215000	5.566500
819	2	19.150000	38.300000	3.711000
820	2	21.065000	40.215000	3.711000
821	1	21.065000	38.300000	5.566500
822	1	19.150000	40.215000	5.566500
823	2	22.980000	38.300000	3.711000
824	2	24.895000	40.215000	3.711000
825	1	24.895000	38.300000	5.566500
826	1	22.980000	40.215000	5.566500
827	2	26.810000	38.300000	3.711000
828	2	28.725000	40.215000	3.711000
829	1	28.725000	38.300000	5.566500
830	1	26.810000	40.215000	5.566500
831	2	30.640000	38.300000	3.711000
832	2	32.555000	40.215000	3.711000
833	1	32.555000	38.300000	5.566500
834	1	30.640000	40.215000	5.566500
835	2	34.470000	38.300000	3.711000
836	2	36.385000	40.215000	3.711000
837	1	36.385000	38.300000	5.566500
838	1	34.470000	40.215000	5.566500
839	2	38.300000	38.300000	3.711000
840	2	40.215000	40.215000	3.711000
841	1	40.215000	38.300000	5.566500
842	1	38.300000	40.215000	5.566500
843	2	42.130000	38.300000	3.711000
844	2	44.045000	40.215000	3.711000
845	1	44.045000	38.300000	5.566500
846	1	42.130000	40.215000	5.566500
847	2	45.960000	38.300000	3.711000
848	2	47.875000	40.215000	3.711000
849	1	47.875000	38.300000	5.566500
850	1	45.960000	40.215000	5.566500
851	2	49.790000	38.300000	3.711000
852	2	51.705000	40.215000	3.711000
853	1	51.705000	38.300000	5.566500
854	1	49.790000	40.215000	5.566500
855	2	53.620000	38.300000	3.711000
856	2	55.535000	40.215000	3.711000
857	1	55.535000	38.300000	5.566500