units metal
dimension 3
boundary p p p

atom_style atomic
pair_style meam/c
read_data Octahedron_1000_atoms.in
  triclinic box = (-1.17 -1.17 -1.289) to (43.3 43.3 42.11) with tilt (0 0 0)
  4 by 4 by 2 MPI processor grid
  reading atoms ...
  1000 atoms
  read_data CPU = 0.00918603 secs

#Pair_Coeff MEAM
pair_coeff * * library.meam Fe(L10) Pt(L10) FePt.meam Fe(L10) Pt(L10)
Reading potential file library.meam with DATE: 2012-06-29
Reading potential file FePt.meam with DATE: 2007-06-11

#Energy Per Atom Computes for vacuum grain
compute per_atom all pe/atom
compute grain_energy all reduce sum c_per_atom
variable num_grain_atoms equal count(all)
variable energy_per_atom equal c_grain_energy/v_num_grain_atoms

#Stress computations
compute stress all stress/atom NULL
variable total_stress atom abs(c_stress[1])+abs(c_stress[2])+abs(c_stress[3])+abs(c_stress[4])+abs(c_stress[5])+abs(c_stress[6])
variable average_stress atom v_total_stress/6

#Thermo output style
thermo_style custom step temp epair emol etotal press v_num_grain_atoms c_grain_energy v_energy_per_atom

thermo 1000

#Dump custom setup
dump MiDump all custom 5000 Octahedron_1000_atoms_5000_steps.xyz id type x y z fx fy fz c_stress[1] c_stress[2] c_stress[3] c_stress[4] c_stress[5] c_stress[6] v_average_stress v_total_stress
fix run all npt temp 1.0 1.0 $(100.0*dt) aniso 1.0 1.0 $(1000.0*dt)
fix run all npt temp 1.0 1.0 0.10000000000000000555 aniso 1.0 1.0 $(1000.0*dt)
fix run all npt temp 1.0 1.0 0.10000000000000000555 aniso 1.0 1.0 1
run 5000
Neighbor list info ...
  update every 1 steps, delay 10 steps, check yes
  max neighbors/atom: 2000, page size: 100000
  master list distance cutoff = 6.5
  ghost atom cutoff = 6.5
  binsize = 3.25, bins = 14 14 14
  2 neighbor lists, perpetual/occasional/extra = 2 0 0
  (1) pair meam/c, perpetual
      attributes: full, newton on
      pair build: full/bin/atomonly
      stencil: full/bin/3d
      bin: standard
  (2) pair meam/c, perpetual, half/full from (1)
      attributes: half, newton on
      pair build: halffull/newton
      stencil: none
      bin: none
Per MPI rank memory allocation (min/avg/max) = 9.228 | 10.21 | 11.08 Mbytes
Step Temp E_pair E_mol TotEng Press v_num_grain_atoms c_grain_energy v_energy_per_atom
       0            0   -5146.8078            0   -5146.8078    6744.3059         1000   -5146.8078   -5.1468078
    1000    1.1448199   -5184.8572            0   -5184.7094   0.94514147         1000   -5184.8572   -5.1848572
    2000   0.85344487   -5184.8833            0   -5184.7731    0.9387153         1000   -5184.8833   -5.1848833
    3000    1.0144568   -5184.8685            0   -5184.7375    1.0440831         1000   -5184.8685   -5.1848685
    4000    1.0340863   -5184.8865            0   -5184.7529    1.0798403         1000   -5184.8865   -5.1848865
    5000   0.88322027   -5184.8605            0   -5184.7465   0.92392844         1000   -5184.8605   -5.1848605
Loop time of 7.70749 on 32 procs for 5000 steps with 1000 atoms

Performance: 56.049 ns/day, 0.428 hours/ns, 648.719 timesteps/s
99.9% CPU use with 32 MPI tasks x no OpenMP threads

MPI task timing breakdown:
Section |  min time  |  avg time  |  max time  |%varavg| %total
---------------------------------------------------------------
Pair    | 4.2945     | 5.2566     | 7.3689     |  46.8 | 68.20
Neigh   | 1.9073e-06 | 9.4734e-05 | 0.00034404 |   0.0 |  0.00
Comm    | 0.12177    | 1.5261     | 2.7772     |  84.3 | 19.80
Output  | 0.00159    | 0.0015936  | 0.0016122  |   0.0 |  0.02
Modify  | 0.17224    | 0.88623    | 2.8331     | 117.0 | 11.50
Other   |            | 0.03694    |            |       |  0.48

Nlocal:    31.25 ave 106 max 0 min
Histogram: 8 15 1 0 0 0 0 1 4 3
Nghost:    207.688 ave 461 max 48 min
Histogram: 8 0 8 8 0 0 0 0 1 7
Neighs:    915.5 ave 3223 max 0 min
Histogram: 13 11 0 0 0 0 0 1 2 5
FullNghs:  1831 ave 6989 max 0 min
Histogram: 16 8 0 0 0 0 0 3 3 2

Total # of neighbors = 58592
Ave neighs/atom = 58.592
Neighbor list builds = 1
Dangerous builds = 1
dump_modify MiDump every 250
run 5000
Per MPI rank memory allocation (min/avg/max) = 9.353 | 10.34 | 11.2 Mbytes
Step Temp E_pair E_mol TotEng Press v_num_grain_atoms c_grain_energy v_energy_per_atom
    5000   0.88322027   -5184.8605            0   -5184.7465   0.92392844         1000   -5184.8605   -5.1848605
    6000    1.0556786   -5184.8882            0   -5184.7519    1.0164741         1000   -5184.8882   -5.1848882
    7000   0.93631274   -5184.8624            0   -5184.7415    1.0519394         1000   -5184.8624   -5.1848624
    8000    1.0393027   -5184.8822            0    -5184.748    0.9795822         1000   -5184.8822   -5.1848822
    9000   0.97323688   -5184.8766            0   -5184.7509   0.28797499         1000   -5184.8766   -5.1848766
   10000    1.0520877   -5184.8775            0   -5184.7417   0.94515543         1000   -5184.8775   -5.1848775
Loop time of 8.12416 on 32 procs for 5000 steps with 1000 atoms

Performance: 53.175 ns/day, 0.451 hours/ns, 615.449 timesteps/s
99.9% CPU use with 32 MPI tasks x no OpenMP threads

MPI task timing breakdown:
Section |  min time  |  avg time  |  max time  |%varavg| %total
---------------------------------------------------------------
Pair    | 4.5118     | 5.4866     | 7.7573     |  46.7 | 67.53
Neigh   | 0          | 0          | 0          |   0.0 |  0.00
Comm    | 0.13884    | 1.6358     | 2.9946     |  85.2 | 20.13
Output  | 0.017971   | 0.019305   | 0.02162    |   0.7 |  0.24
Modify  | 0.17       | 0.94536    | 3.0914     | 121.4 | 11.64
Other   |            | 0.03714    |            |       |  0.46

Nlocal:    31.25 ave 100 max 0 min
Histogram: 8 13 3 0 0 0 0 0 2 6
Nghost:    207.688 ave 459 max 48 min
Histogram: 8 0 7 9 0 0 0 0 0 8
Neighs:    916.719 ave 3476 max 0 min
Histogram: 15 9 0 0 0 0 1 3 0 4
FullNghs:  1833.44 ave 6278 max 0 min
Histogram: 14 10 0 0 0 0 0 0 1 7

Total # of neighbors = 58670
Ave neighs/atom = 58.67
Neighbor list builds = 0
Dangerous builds = 0
#Minimize to get final energy
minimize 0.0 0.0 10000 100000
WARNING: Using 'neigh_modify every 1 delay 0 check yes' setting during minimization (../min.cpp:168)
Per MPI rank memory allocation (min/avg/max) = 10.48 | 11.46 | 12.33 Mbytes
Step Temp E_pair E_mol TotEng Press v_num_grain_atoms c_grain_energy v_energy_per_atom
   10000    1.0520877   -5184.8775            0   -5184.7417   0.94515543         1000   -5184.8775   -5.1848775
   11000    1.0520877   -5185.0072            0   -5184.8713    1.6891786         1000   -5185.0072   -5.1850072
   12000    1.0520877   -5185.0072            0   -5184.8713    1.6891786         1000   -5185.0072   -5.1850072
   13000    1.0520877   -5185.0072            0   -5184.8713    1.6891786         1000   -5185.0072   -5.1850072
   14000    1.0520877   -5185.0072            0   -5184.8713    1.6891786         1000   -5185.0072   -5.1850072
   15000    1.0520877   -5185.0072            0   -5184.8713    1.6891786         1000   -5185.0072   -5.1850072
   16000    1.0520877   -5185.0072            0   -5184.8713    1.6891786         1000   -5185.0072   -5.1850072
   17000    1.0520877   -5185.0072            0   -5184.8713    1.6891786         1000   -5185.0072   -5.1850072
   18000    1.0520877   -5185.0072            0   -5184.8713    1.6891786         1000   -5185.0072   -5.1850072
   19000    1.0520877   -5185.0072            0   -5184.8713    1.6891786         1000   -5185.0072   -5.1850072
   20000    1.0520877   -5185.0072            0   -5184.8713    1.6891786         1000   -5185.0072   -5.1850072
Loop time of 31.3221 on 32 procs for 10000 steps with 1000 atoms

99.9% CPU use with 32 MPI tasks x no OpenMP threads

Minimization stats:
  Stopping criterion = max iterations
  Energy initial, next-to-last, final =
        -5184.87752404     -5185.00719502     -5185.00719502
  Force two-norm initial, final = 1.8676 6.23228e-13
  Force max component initial, final = 0.195723 5.5983e-14
  Final line search alpha, max atom move = 1 5.5983e-14
  Iterations, force evaluations = 10000 20000

MPI task timing breakdown:
Section |  min time  |  avg time  |  max time  |%varavg| %total
---------------------------------------------------------------
Pair    | 17.732     | 21.63      | 30.004     |  93.7 | 69.06
Neigh   | 0          | 0          | 0          |   0.0 |  0.00
Comm    | 0.61756    | 6.3187     | 11.259     | 172.1 | 20.17
Output  | 0.03636    | 0.03851    | 0.042555   |   0.8 |  0.12
Modify  | 0          | 0          | 0          |   0.0 |  0.00
Other   |            | 3.335      |            |       | 10.65

Nlocal:    31.25 ave 99 max 0 min
Histogram: 8 14 2 0 0 0 0 0 1 7
Nghost:    207.688 ave 458 max 48 min
Histogram: 8 0 5 11 0 0 0 0 0 8
Neighs:    916.656 ave 3432 max 0 min
Histogram: 17 7 0 0 0 0 0 4 0 4
FullNghs:  1833.31 ave 6267 max 0 min
Histogram: 11 13 0 0 0 0 0 0 2 6

Total # of neighbors = 58666
Ave neighs/atom = 58.666
Neighbor list builds = 0
Dangerous builds = 0


#Clear for next model
clear
