Truncated_Octahedron_Major_11000_atoms

11000 atoms
2 atom types
-8.085 71.28 xlo xhi
-8.085 71.28 ylo yhi
-8.1445 69.376 zlo zhi
0 0 0 xy xz yz

Atoms

1 1 3.83 15.32 25.977
2 1 3.83 15.32 29.688
3 1 3.83 15.32 33.399
4 1 3.83 15.32 37.11
5 1 3.83 19.15 22.266
6 1 3.83 19.15 25.977
7 1 3.83 19.15 29.688
8 1 3.83 19.15 33.399
9 1 3.83 19.15 37.11
10 1 3.83 19.15 40.821
11 1 3.83 22.98 18.555
12 1 3.83 22.98 22.266
13 1 3.83 22.98 25.977
14 1 3.83 22.98 29.688
15 1 3.83 22.98 33.399
16 1 3.83 22.98 37.11
17 1 3.83 22.98 40.821
18 1 3.83 22.98 44.532
19 1 3.83 26.810000000000002 14.844
20 1 3.83 26.810000000000002 18.555
21 1 3.83 26.810000000000002 22.266
22 1 3.83 26.810000000000002 25.977
23 1 3.83 26.810000000000002 29.688
24 1 3.83 26.810000000000002 33.399
25 1 3.83 26.810000000000002 37.11
26 1 3.83 26.810000000000002 40.821
27 1 3.83 26.810000000000002 44.532
28 1 3.83 26.810000000000002 48.242999999999995
29 1 3.83 30.64 14.844
30 1 3.83 30.64 18.555
31 1 3.83 30.64 22.266
32 1 3.83 30.64 25.977
33 1 3.83 30.64 29.688
34 1 3.83 30.64 33.399
35 1 3.83 30.64 37.11
36 1 3.83 30.64 40.821
37 1 3.83 30.64 44.532
38 1 3.83 30.64 48.242999999999995
39 1 3.83 34.47 14.844
40 1 3.83 34.47 18.555
41 1 3.83 34.47 22.266
42 1 3.83 34.47 25.977
43 1 3.83 34.47 29.688
44 1 3.83 34.47 33.399
45 1 3.83 34.47 37.11
46 1 3.83 34.47 40.821
47 1 3.83 34.47 44.532
48 1 3.83 34.47 48.242999999999995
49 1 3.83 38.3 14.844
50 1 3.83 38.3 18.555
51 1 3.83 38.3 22.266
52 1 3.83 38.3 25.977
53 1 3.83 38.3 29.688
54 1 3.83 38.3 33.399
55 1 3.83 38.3 37.11
56 1 3.83 38.3 40.821
57 1 3.83 38.3 44.532
58 1 3.83 38.3 48.242999999999995
59 1 3.83 42.13 18.555
60 1 3.83 42.13 22.266
61 1 3.83 42.13 25.977
62 1 3.83 42.13 29.688
63 1 3.83 42.13 33.399
64 1 3.83 42.13 37.11
65 1 3.83 42.13 40.821
66 1 3.83 42.13 44.532
67 1 3.83 45.96 22.266
68 1 3.83 45.96 25.977
69 1 3.83 45.96 29.688
70 1 3.83 45.96 33.399
71 1 3.83 45.96 37.11
72 1 3.83 45.96 40.821
73 1 3.83 49.79 25.977
74 1 3.83 49.79 29.688
75 1 3.83 49.79 33.399
76 1 3.83 49.79 37.11
77 1 7.66 7.66 29.688
78 1 7.66 7.66 33.399
79 1 7.66 11.49 25.977
80 1 7.66 11.49 29.688
81 1 7.66 11.49 33.399
82 1 7.66 11.49 37.11
83 1 7.66 15.32 22.266
84 1 7.66 15.32 25.977
85 1 7.66 15.32 29.688
86 1 7.66 15.32 33.399
87 1 7.66 15.32 37.11
88 1 7.66 15.32 40.821
89 1 7.66 19.15 18.555
90 1 7.66 19.15 22.266
91 1 7.66 19.15 25.977
92 1 7.66 19.15 29.688
93 1 7.66 19.15 33.399
94 1 7.66 19.15 37.11
95 1 7.66 19.15 40.821
96 1 7.66 19.15 44.532
97 1 7.66 22.98 14.844
98 1 7.66 22.98 18.555
99 1 7.66 22.98 22.266
100 1 7.66 22.98 25.977
101 1 7.66 22.98 29.688
102 1 7.66 22.98 33.399
103 1 7.66 22.98 37.11
104 1 7.66 22.98 40.821
105 1 7.66 22.98 44.532
106 1 7.66 22.98 48.242999999999995
107 1 7.66 26.810000000000002 11.133
108 1 7.66 26.810000000000002 14.844
109 1 7.66 26.810000000000002 18.555
110 1 7.66 26.810000000000002 22.266
111 1 7.66 26.810000000000002 25.977
112 1 7.66 26.810000000000002 29.688
113 1 7.66 26.810000000000002 33.399
114 1 7.66 26.810000000000002 37.11
115 1 7.66 26.810000000000002 40.821
116 1 7.66 26.810000000000002 44.532
117 1 7.66 26.810000000000002 48.242999999999995
118 1 7.66 26.810000000000002 51.954
119 1 7.66 30.64 7.422
120 1 7.66 30.64 11.133
121 1 7.66 30.64 14.844
122 1 7.66 30.64 18.555
123 1 7.66 30.64 22.266
124 1 7.66 30.64 25.977
125 1 7.66 30.64 29.688
126 1 7.66 30.64 33.399
127 1 7.66 30.64 37.11
128 1 7.66 30.64 40.821
129 1 7.66 30.64 44.532
130 1 7.66 30.64 48.242999999999995
131 1 7.66 30.64 51.954
132 1 7.66 30.64 55.665
133 1 7.66 34.47 7.422
134 1 7.66 34.47 11.133
135 1 7.66 34.47 14.844
136 1 7.66 34.47 18.555
137 1 7.66 34.47 22.266
138 1 7.66 34.47 25.977
139 1 7.66 34.47 29.688
140 1 7.66 34.47 33.399
141 1 7.66 34.47 37.11
142 1 7.66 34.47 40.821
143 1 7.66 34.47 44.532
144 1 7.66 34.47 48.242999999999995
145 1 7.66 34.47 51.954
146 1 7.66 34.47 55.665
147 1 7.66 38.3 11.133
148 1 7.66 38.3 14.844
149 1 7.66 38.3 18.555
150 1 7.66 38.3 22.266
151 1 7.66 38.3 25.977
152 1 7.66 38.3 29.688
153 1 7.66 38.3 33.399
154 1 7.66 38.3 37.11
155 1 7.66 38.3 40.821
156 1 7.66 38.3 44.532
157 1 7.66 38.3 48.242999999999995
158 1 7.66 38.3 51.954
159 1 7.66 42.13 14.844
160 1 7.66 42.13 18.555
161 1 7.66 42.13 22.266
162 1 7.66 42.13 25.977
163 1 7.66 42.13 29.688
164 1 7.66 42.13 33.399
165 1 7.66 42.13 37.11
166 1 7.66 42.13 40.821
167 1 7.66 42.13 44.532
168 1 7.66 42.13 48.242999999999995
169 1 7.66 45.96 18.555
170 1 7.66 45.96 22.266
171 1 7.66 45.96 25.977
172 1 7.66 45.96 29.688
173 1 7.66 45.96 33.399
174 1 7.66 45.96 37.11
175 1 7.66 45.96 40.821
176 1 7.66 45.96 44.532
177 1 7.66 49.79 22.266
178 1 7.66 49.79 25.977
179 1 7.66 49.79 29.688
180 1 7.66 49.79 33.399
181 1 7.66 49.79 37.11
182 1 7.66 49.79 40.821
183 1 7.66 53.620000000000005 25.977
184 1 7.66 53.620000000000005 29.688
185 1 7.66 53.620000000000005 33.399
186 1 7.66 53.620000000000005 37.11
187 1 7.66 57.45 29.688
188 1 7.66 57.45 33.399
189 1 11.49 3.83 29.688
190 1 11.49 3.83 33.399
191 1 11.49 7.66 25.977
192 1 11.49 7.66 29.688
193 1 11.49 7.66 33.399
194 1 11.49 7.66 37.11
195 1 11.49 11.49 22.266
196 1 11.49 11.49 25.977
197 1 11.49 11.49 29.688
198 1 11.49 11.49 33.399
199 1 11.49 11.49 37.11
200 1 11.49 11.49 40.821
201 1 11.49 15.32 18.555
202 1 11.49 15.32 22.266
203 1 11.49 15.32 25.977
204 1 11.49 15.32 29.688
205 1 11.49 15.32 33.399
206 1 11.49 15.32 37.11
207 1 11.49 15.32 40.821
208 1 11.49 15.32 44.532
209 1 11.49 19.15 14.844
210 1 11.49 19.15 18.555
211 1 11.49 19.15 22.266
212 1 11.49 19.15 25.977
213 1 11.49 19.15 29.688
214 1 11.49 19.15 33.399
215 1 11.49 19.15 37.11
216 1 11.49 19.15 40.821
217 1 11.49 19.15 44.532
218 1 11.49 19.15 48.242999999999995
219 1 11.49 22.98 11.133
220 1 11.49 22.98 14.844
221 1 11.49 22.98 18.555
222 1 11.49 22.98 22.266
223 1 11.49 22.98 25.977
224 1 11.49 22.98 29.688
225 1 11.49 22.98 33.399
226 1 11.49 22.98 37.11
227 1 11.49 22.98 40.821
228 1 11.49 22.98 44.532
229 1 11.49 22.98 48.242999999999995
230 1 11.49 22.98 51.954
231 1 11.49 26.810000000000002 7.422
232 1 11.49 26.810000000000002 11.133
233 1 11.49 26.810000000000002 14.844
234 1 11.49 26.810000000000002 18.555
235 1 11.49 26.810000000000002 22.266
236 1 11.49 26.810000000000002 25.977
237 1 11.49 26.810000000000002 29.688
238 1 11.49 26.810000000000002 33.399
239 1 11.49 26.810000000000002 37.11
240 1 11.49 26.810000000000002 40.821
241 1 11.49 26.810000000000002 44.532
242 1 11.49 26.810000000000002 48.242999999999995
243 1 11.49 26.810000000000002 51.954
244 1 11.49 26.810000000000002 55.665
245 1 11.49 30.64 3.711
246 1 11.49 30.64 7.422
247 1 11.49 30.64 11.133
248 1 11.49 30.64 14.844
249 1 11.49 30.64 18.555
250 1 11.49 30.64 22.266
251 1 11.49 30.64 25.977
252 1 11.49 30.64 29.688
253 1 11.49 30.64 33.399
254 1 11.49 30.64 37.11
255 1 11.49 30.64 40.821
256 1 11.49 30.64 44.532
257 1 11.49 30.64 48.242999999999995
258 1 11.49 30.64 51.954
259 1 11.49 30.64 55.665
260 1 11.49 34.47 3.711
261 1 11.49 34.47 7.422
262 1 11.49 34.47 11.133
263 1 11.49 34.47 14.844
264 1 11.49 34.47 18.555
265 1 11.49 34.47 22.266
266 1 11.49 34.47 25.977
267 1 11.49 34.47 29.688
268 1 11.49 34.47 33.399
269 1 11.49 34.47 37.11
270 1 11.49 34.47 40.821
271 1 11.49 34.47 44.532
272 1 11.49 34.47 48.242999999999995
273 1 11.49 34.47 51.954
274 1 11.49 34.47 55.665
275 1 11.49 38.3 7.422
276 1 11.49 38.3 11.133
277 1 11.49 38.3 14.844
278 1 11.49 38.3 18.555
279 1 11.49 38.3 22.266
280 1 11.49 38.3 25.977
281 1 11.49 38.3 29.688
282 1 11.49 38.3 33.399
283 1 11.49 38.3 37.11
284 1 11.49 38.3 40.821
285 1 11.49 38.3 44.532
286 1 11.49 38.3 48.242999999999995
287 1 11.49 38.3 51.954
288 1 11.49 38.3 55.665
289 1 11.49 42.13 11.133
290 1 11.49 42.13 14.844
291 1 11.49 42.13 18.555
292 1 11.49 42.13 22.266
293 1 11.49 42.13 25.977
294 1 11.49 42.13 29.688
295 1 11.49 42.13 33.399
296 1 11.49 42.13 37.11
297 1 11.49 42.13 40.821
298 1 11.49 42.13 44.532
299 1 11.49 42.13 48.242999999999995
300 1 11.49 42.13 51.954
301 1 11.49 45.96 14.844
302 1 11.49 45.96 18.555
303 1 11.49 45.96 22.266
304 1 11.49 45.96 25.977
305 1 11.49 45.96 29.688
306 1 11.49 45.96 33.399
307 1 11.49 45.96 37.11
308 1 11.49 45.96 40.821
309 1 11.49 45.96 44.532
310 1 11.49 45.96 48.242999999999995
311 1 11.49 49.79 18.555
312 1 11.49 49.79 22.266
313 1 11.49 49.79 25.977
314 1 11.49 49.79 29.688
315 1 11.49 49.79 33.399
316 1 11.49 49.79 37.11
317 1 11.49 49.79 40.821
318 1 11.49 49.79 44.532
319 1 11.49 53.620000000000005 22.266
320 1 11.49 53.620000000000005 25.977
321 1 11.49 53.620000000000005 29.688
322 1 11.49 53.620000000000005 33.399
323 1 11.49 53.620000000000005 37.11
324 1 11.49 53.620000000000005 40.821
325 1 11.49 57.45 25.977
326 1 11.49 57.45 29.688
327 1 11.49 57.45 33.399
328 1 11.49 57.45 37.11
329 1 15.32 3.83 25.977
330 1 15.32 3.83 29.688
331 1 15.32 3.83 33.399
332 1 15.32 3.83 37.11
333 1 15.32 7.66 22.266
334 1 15.32 7.66 25.977
335 1 15.32 7.66 29.688
336 1 15.32 7.66 33.399
337 1 15.32 7.66 37.11
338 1 15.32 7.66 40.821
339 1 15.32 11.49 18.555
340 1 15.32 11.49 22.266
341 1 15.32 11.49 25.977
342 1 15.32 11.49 29.688
343 1 15.32 11.49 33.399
344 1 15.32 11.49 37.11
345 1 15.32 11.49 40.821
346 1 15.32 11.49 44.532
347 1 15.32 15.32 14.844
348 1 15.32 15.32 18.555
349 1 15.32 15.32 22.266
350 1 15.32 15.32 25.977
351 1 15.32 15.32 29.688
352 1 15.32 15.32 33.399
353 1 15.32 15.32 37.11
354 1 15.32 15.32 40.821
355 1 15.32 15.32 44.532
356 1 15.32 15.32 48.242999999999995
357 1 15.32 19.15 11.133
358 1 15.32 19.15 14.844
359 1 15.32 19.15 18.555
360 1 15.32 19.15 22.266
361 1 15.32 19.15 25.977
362 1 15.32 19.15 29.688
363 1 15.32 19.15 33.399
364 1 15.32 19.15 37.11
365 1 15.32 19.15 40.821
366 1 15.32 19.15 44.532
367 1 15.32 19.15 48.242999999999995
368 1 15.32 19.15 51.954
369 1 15.32 22.98 7.422
370 1 15.32 22.98 11.133
371 1 15.32 22.98 14.844
372 1 15.32 22.98 18.555
373 1 15.32 22.98 22.266
374 1 15.32 22.98 25.977
375 1 15.32 22.98 29.688
376 1 15.32 22.98 33.399
377 1 15.32 22.98 37.11
378 1 15.32 22.98 40.821
379 1 15.32 22.98 44.532
380 1 15.32 22.98 48.242999999999995
381 1 15.32 22.98 51.954
382 1 15.32 22.98 55.665
383 1 15.32 26.810000000000002 3.711
384 1 15.32 26.810000000000002 7.422
385 1 15.32 26.810000000000002 11.133
386 1 15.32 26.810000000000002 14.844
387 1 15.32 26.810000000000002 18.555
388 1 15.32 26.810000000000002 22.266
389 1 15.32 26.810000000000002 25.977
390 1 15.32 26.810000000000002 29.688
391 1 15.32 26.810000000000002 33.399
392 1 15.32 26.810000000000002 37.11
393 1 15.32 26.810000000000002 40.821
394 1 15.32 26.810000000000002 44.532
395 1 15.32 26.810000000000002 48.242999999999995
396 1 15.32 26.810000000000002 51.954
397 1 15.32 26.810000000000002 55.665
398 1 15.32 30.64 3.711
399 1 15.32 30.64 7.422
400 1 15.32 30.64 11.133
401 1 15.32 30.64 14.844
402 1 15.32 30.64 18.555
403 1 15.32 30.64 22.266
404 1 15.32 30.64 25.977
405 1 15.32 30.64 29.688
406 1 15.32 30.64 33.399
407 1 15.32 30.64 37.11
408 1 15.32 30.64 40.821
409 1 15.32 30.64 44.532
410 1 15.32 30.64 48.242999999999995
411 1 15.32 30.64 51.954
412 1 15.32 30.64 55.665
413 1 15.32 30.64 59.376
414 1 15.32 34.47 3.711
415 1 15.32 34.47 7.422
416 1 15.32 34.47 11.133
417 1 15.32 34.47 14.844
418 1 15.32 34.47 18.555
419 1 15.32 34.47 22.266
420 1 15.32 34.47 25.977
421 1 15.32 34.47 29.688
422 1 15.32 34.47 33.399
423 1 15.32 34.47 37.11
424 1 15.32 34.47 40.821
425 1 15.32 34.47 44.532
426 1 15.32 34.47 48.242999999999995
427 1 15.32 34.47 51.954
428 1 15.32 34.47 55.665
429 1 15.32 34.47 59.376
430 1 15.32 38.3 3.711
431 1 15.32 38.3 7.422
432 1 15.32 38.3 11.133
433 1 15.32 38.3 14.844
434 1 15.32 38.3 18.555
435 1 15.32 38.3 22.266
436 1 15.32 38.3 25.977
437 1 15.32 38.3 29.688
438 1 15.32 38.3 33.399
439 1 15.32 38.3 37.11
440 1 15.32 38.3 40.821
441 1 15.32 38.3 44.532
442 1 15.32 38.3 48.242999999999995
443 1 15.32 38.3 51.954
444 1 15.32 38.3 55.665
445 1 15.32 42.13 7.422
446 1 15.32 42.13 11.133
447 1 15.32 42.13 14.844
448 1 15.32 42.13 18.555
449 1 15.32 42.13 22.266
450 1 15.32 42.13 25.977
451 1 15.32 42.13 29.688
452 1 15.32 42.13 33.399
453 1 15.32 42.13 37.11
454 1 15.32 42.13 40.821
455 1 15.32 42.13 44.532
456 1 15.32 42.13 48.242999999999995
457 1 15.32 42.13 51.954
458 1 15.32 42.13 55.665
459 1 15.32 45.96 11.133
460 1 15.32 45.96 14.844
461 1 15.32 45.96 18.555
462 1 15.32 45.96 22.266
463 1 15.32 45.96 25.977
464 1 15.32 45.96 29.688
465 1 15.32 45.96 33.399
466 1 15.32 45.96 37.11
467 1 15.32 45.96 40.821
468 1 15.32 45.96 44.532
469 1 15.32 45.96 48.242999999999995
470 1 15.32 45.96 51.954
471 1 15.32 49.79 14.844
472 1 15.32 49.79 18.555
473 1 15.32 49.79 22.266
474 1 15.32 49.79 25.977
475 1 15.32 49.79 29.688
476 1 15.32 49.79 33.399
477 1 15.32 49.79 37.11
478 1 15.32 49.79 40.821
479 1 15.32 49.79 44.532
480 1 15.32 49.79 48.242999999999995
481 1 15.32 53.620000000000005 18.555
482 1 15.32 53.620000000000005 22.266
483 1 15.32 53.620000000000005 25.977
484 1 15.32 53.620000000000005 29.688
485 1 15.32 53.620000000000005 33.399
486 1 15.32 53.620000000000005 37.11
487 1 15.32 53.620000000000005 40.821
488 1 15.32 53.620000000000005 44.532
489 1 15.32 57.45 22.266
490 1 15.32 57.45 25.977
491 1 15.32 57.45 29.688
492 1 15.32 57.45 33.399
493 1 15.32 57.45 37.11
494 1 15.32 57.45 40.821
495 1 15.32 61.28 29.688
496 1 15.32 61.28 33.399
497 1 19.15 3.83 22.266
498 1 19.15 3.83 25.977
499 1 19.15 3.83 29.688
500 1 19.15 3.83 33.399
501 1 19.15 3.83 37.11
502 1 19.15 3.83 40.821
503 1 19.15 7.66 18.555
504 1 19.15 7.66 22.266
505 1 19.15 7.66 25.977
506 1 19.15 7.66 29.688
507 1 19.15 7.66 33.399
508 1 19.15 7.66 37.11
509 1 19.15 7.66 40.821
510 1 19.15 7.66 44.532
511 1 19.15 11.49 14.844
512 1 19.15 11.49 18.555
513 1 19.15 11.49 22.266
514 1 19.15 11.49 25.977
515 1 19.15 11.49 29.688
516 1 19.15 11.49 33.399
517 1 19.15 11.49 37.11
518 1 19.15 11.49 40.821
519 1 19.15 11.49 44.532
520 1 19.15 11.49 48.242999999999995
521 1 19.15 15.32 11.133
522 1 19.15 15.32 14.844
523 1 19.15 15.32 18.555
524 1 19.15 15.32 22.266
525 1 19.15 15.32 25.977
526 1 19.15 15.32 29.688
527 1 19.15 15.32 33.399
528 1 19.15 15.32 37.11
529 1 19.15 15.32 40.821
530 1 19.15 15.32 44.532
531 1 19.15 15.32 48.242999999999995
532 1 19.15 15.32 51.954
533 1 19.15 19.15 7.422
534 1 19.15 19.15 11.133
535 1 19.15 19.15 14.844
536 1 19.15 19.15 18.555
537 1 19.15 19.15 22.266
538 1 19.15 19.15 25.977
539 1 19.15 19.15 29.688
540 1 19.15 19.15 33.399
541 1 19.15 19.15 37.11
542 1 19.15 19.15 40.821
543 1 19.15 19.15 44.532
544 1 19.15 19.15 48.242999999999995
545 1 19.15 19.15 51.954
546 1 19.15 19.15 55.665
547 1 19.15 22.98 3.711
548 1 19.15 22.98 7.422
549 1 19.15 22.98 11.133
550 1 19.15 22.98 14.844
551 1 19.15 22.98 18.555
552 1 19.15 22.98 22.266
553 1 19.15 22.98 25.977
554 1 19.15 22.98 29.688
555 1 19.15 22.98 33.399
556 1 19.15 22.98 37.11
557 1 19.15 22.98 40.821
558 1 19.15 22.98 44.532
559 1 19.15 22.98 48.242999999999995
560 1 19.15 22.98 51.954
561 1 19.15 22.98 55.665
562 1 19.15 22.98 59.376
563 1 19.15 26.810000000000002 3.711
564 1 19.15 26.810000000000002 7.422
565 1 19.15 26.810000000000002 11.133
566 1 19.15 26.810000000000002 14.844
567 1 19.15 26.810000000000002 18.555
568 1 19.15 26.810000000000002 22.266
569 1 19.15 26.810000000000002 25.977
570 1 19.15 26.810000000000002 29.688
571 1 19.15 26.810000000000002 33.399
572 1 19.15 26.810000000000002 37.11
573 1 19.15 26.810000000000002 40.821
574 1 19.15 26.810000000000002 44.532
575 1 19.15 26.810000000000002 48.242999999999995
576 1 19.15 26.810000000000002 51.954
577 1 19.15 26.810000000000002 55.665
578 1 19.15 26.810000000000002 59.376
579 1 19.15 30.64 3.711
580 1 19.15 30.64 7.422
581 1 19.15 30.64 11.133
582 1 19.15 30.64 14.844
583 1 19.15 30.64 18.555
584 1 19.15 30.64 22.266
585 1 19.15 30.64 25.977
586 1 19.15 30.64 29.688
587 1 19.15 30.64 33.399
588 1 19.15 30.64 37.11
589 1 19.15 30.64 40.821
590 1 19.15 30.64 44.532
591 1 19.15 30.64 48.242999999999995
592 1 19.15 30.64 51.954
593 1 19.15 30.64 55.665
594 1 19.15 30.64 59.376
595 1 19.15 34.47 3.711
596 1 19.15 34.47 7.422
597 1 19.15 34.47 11.133
598 1 19.15 34.47 14.844
599 1 19.15 34.47 18.555
600 1 19.15 34.47 22.266
601 1 19.15 34.47 25.977
602 1 19.15 34.47 29.688
603 1 19.15 34.47 33.399
604 1 19.15 34.47 37.11
605 1 19.15 34.47 40.821
606 1 19.15 34.47 44.532
607 1 19.15 34.47 48.242999999999995
608 1 19.15 34.47 51.954
609 1 19.15 34.47 55.665
610 1 19.15 34.47 59.376
611 1 19.15 38.3 3.711
612 1 19.15 38.3 7.422
613 1 19.15 38.3 11.133
614 1 19.15 38.3 14.844
615 1 19.15 38.3 18.555
616 1 19.15 38.3 22.266
617 1 19.15 38.3 25.977
618 1 19.15 38.3 29.688
619 1 19.15 38.3 33.399
620 1 19.15 38.3 37.11
621 1 19.15 38.3 40.821
622 1 19.15 38.3 44.532
623 1 19.15 38.3 48.242999999999995
624 1 19.15 38.3 51.954
625 1 19.15 38.3 55.665
626 1 19.15 38.3 59.376
627 1 19.15 42.13 3.711
628 1 19.15 42.13 7.422
629 1 19.15 42.13 11.133
630 1 19.15 42.13 14.844
631 1 19.15 42.13 18.555
632 1 19.15 42.13 22.266
633 1 19.15 42.13 25.977
634 1 19.15 42.13 29.688
635 1 19.15 42.13 33.399
636 1 19.15 42.13 37.11
637 1 19.15 42.13 40.821
638 1 19.15 42.13 44.532
639 1 19.15 42.13 48.242999999999995
640 1 19.15 42.13 51.954
641 1 19.15 42.13 55.665
642 1 19.15 42.13 59.376
643 1 19.15 45.96 7.422
644 1 19.15 45.96 11.133
645 1 19.15 45.96 14.844
646 1 19.15 45.96 18.555
647 1 19.15 45.96 22.266
648 1 19.15 45.96 25.977
649 1 19.15 45.96 29.688
650 1 19.15 45.96 33.399
651 1 19.15 45.96 37.11
652 1 19.15 45.96 40.821
653 1 19.15 45.96 44.532
654 1 19.15 45.96 48.242999999999995
655 1 19.15 45.96 51.954
656 1 19.15 45.96 55.665
657 1 19.15 49.79 11.133
658 1 19.15 49.79 14.844
659 1 19.15 49.79 18.555
660 1 19.15 49.79 22.266
661 1 19.15 49.79 25.977
662 1 19.15 49.79 29.688
663 1 19.15 49.79 33.399
664 1 19.15 49.79 37.11
665 1 19.15 49.79 40.821
666 1 19.15 49.79 44.532
667 1 19.15 49.79 48.242999999999995
668 1 19.15 49.79 51.954
669 1 19.15 53.620000000000005 14.844
670 1 19.15 53.620000000000005 18.555
671 1 19.15 53.620000000000005 22.266
672 1 19.15 53.620000000000005 25.977
673 1 19.15 53.620000000000005 29.688
674 1 19.15 53.620000000000005 33.399
675 1 19.15 53.620000000000005 37.11
676 1 19.15 53.620000000000005 40.821
677 1 19.15 53.620000000000005 44.532
678 1 19.15 53.620000000000005 48.242999999999995
679 1 19.15 57.45 18.555
680 1 19.15 57.45 22.266
681 1 19.15 57.45 25.977
682 1 19.15 57.45 29.688
683 1 19.15 57.45 33.399
684 1 19.15 57.45 37.11
685 1 19.15 57.45 40.821
686 1 19.15 57.45 44.532
687 1 19.15 61.28 22.266
688 1 19.15 61.28 25.977
689 1 19.15 61.28 29.688
690 1 19.15 61.28 33.399
691 1 19.15 61.28 37.11
692 1 19.15 61.28 40.821
693 1 22.98 3.83 18.555
694 1 22.98 3.83 22.266
695 1 22.98 3.83 25.977
696 1 22.98 3.83 29.688
697 1 22.98 3.83 33.399
698 1 22.98 3.83 37.11
699 1 22.98 3.83 40.821
700 1 22.98 3.83 44.532
701 1 22.98 7.66 14.844
702 1 22.98 7.66 18.555
703 1 22.98 7.66 22.266
704 1 22.98 7.66 25.977
705 1 22.98 7.66 29.688
706 1 22.98 7.66 33.399
707 1 22.98 7.66 37.11
708 1 22.98 7.66 40.821
709 1 22.98 7.66 44.532
710 1 22.98 7.66 48.242999999999995
711 1 22.98 11.49 11.133
712 1 22.98 11.49 14.844
713 1 22.98 11.49 18.555
714 1 22.98 11.49 22.266
715 1 22.98 11.49 25.977
716 1 22.98 11.49 29.688
717 1 22.98 11.49 33.399
718 1 22.98 11.49 37.11
719 1 22.98 11.49 40.821
720 1 22.98 11.49 44.532
721 1 22.98 11.49 48.242999999999995
722 1 22.98 11.49 51.954
723 1 22.98 15.32 7.422
724 1 22.98 15.32 11.133
725 1 22.98 15.32 14.844
726 1 22.98 15.32 18.555
727 1 22.98 15.32 22.266
728 1 22.98 15.32 25.977
729 1 22.98 15.32 29.688
730 1 22.98 15.32 33.399
731 1 22.98 15.32 37.11
732 1 22.98 15.32 40.821
733 1 22.98 15.32 44.532
734 1 22.98 15.32 48.242999999999995
735 1 22.98 15.32 51.954
736 1 22.98 15.32 55.665
737 1 22.98 19.15 3.711
738 1 22.98 19.15 7.422
739 1 22.98 19.15 11.133
740 1 22.98 19.15 14.844
741 1 22.98 19.15 18.555
742 1 22.98 19.15 22.266
743 1 22.98 19.15 25.977
744 1 22.98 19.15 29.688
745 1 22.98 19.15 33.399
746 1 22.98 19.15 37.11
747 1 22.98 19.15 40.821
748 1 22.98 19.15 44.532
749 1 22.98 19.15 48.242999999999995
750 1 22.98 19.15 51.954
751 1 22.98 19.15 55.665
752 1 22.98 19.15 59.376
753 1 22.98 22.98 3.711
754 1 22.98 22.98 7.422
755 1 22.98 22.98 11.133
756 1 22.98 22.98 14.844
757 1 22.98 22.98 18.555
758 1 22.98 22.98 22.266
759 1 22.98 22.98 25.977
760 1 22.98 22.98 29.688
761 1 22.98 22.98 33.399
762 1 22.98 22.98 37.11
763 1 22.98 22.98 40.821
764 1 22.98 22.98 44.532
765 1 22.98 22.98 48.242999999999995
766 1 22.98 22.98 51.954
767 1 22.98 22.98 55.665
768 1 22.98 22.98 59.376
769 1 22.98 26.810000000000002 3.711
770 1 22.98 26.810000000000002 7.422
771 1 22.98 26.810000000000002 11.133
772 1 22.98 26.810000000000002 14.844
773 1 22.98 26.810000000000002 18.555
774 1 22.98 26.810000000000002 22.266
775 1 22.98 26.810000000000002 25.977
776 1 22.98 26.810000000000002 29.688
777 1 22.98 26.810000000000002 33.399
778 1 22.98 26.810000000000002 37.11
779 1 22.98 26.810000000000002 40.821
780 1 22.98 26.810000000000002 44.532
781 1 22.98 26.810000000000002 48.242999999999995
782 1 22.98 26.810000000000002 51.954
783 1 22.98 26.810000000000002 55.665
784 1 22.98 26.810000000000002 59.376
785 1 22.98 30.64 3.711
786 1 22.98 30.64 7.422
787 1 22.98 30.64 11.133
788 1 22.98 30.64 14.844
789 1 22.98 30.64 18.555
790 1 22.98 30.64 22.266
791 1 22.98 30.64 25.977
792 1 22.98 30.64 29.688
793 1 22.98 30.64 33.399
794 1 22.98 30.64 37.11
795 1 22.98 30.64 40.821
796 1 22.98 30.64 44.532
797 1 22.98 30.64 48.242999999999995
798 1 22.98 30.64 51.954
799 1 22.98 30.64 55.665
800 1 22.98 30.64 59.376
801 1 22.98 34.47 3.711
802 1 22.98 34.47 7.422
803 1 22.98 34.47 11.133
804 1 22.98 34.47 14.844
805 1 22.98 34.47 18.555
806 1 22.98 34.47 22.266
807 1 22.98 34.47 25.977
808 1 22.98 34.47 29.688
809 1 22.98 34.47 33.399
810 1 22.98 34.47 37.11
811 1 22.98 34.47 40.821
812 1 22.98 34.47 44.532
813 1 22.98 34.47 48.242999999999995
814 1 22.98 34.47 51.954
815 1 22.98 34.47 55.665
816 1 22.98 34.47 59.376
817 1 22.98 38.3 3.711
818 1 22.98 38.3 7.422
819 1 22.98 38.3 11.133
820 1 22.98 38.3 14.844
821 1 22.98 38.3 18.555
822 1 22.98 38.3 22.266
823 1 22.98 38.3 25.977
824 1 22.98 38.3 29.688
825 1 22.98 38.3 33.399
826 1 22.98 38.3 37.11
827 1 22.98 38.3 40.821
828 1 22.98 38.3 44.532
829 1 22.98 38.3 48.242999999999995
830 1 22.98 38.3 51.954
831 1 22.98 38.3 55.665
832 1 22.98 38.3 59.376
833 1 22.98 42.13 3.711
834 1 22.98 42.13 7.422
835 1 22.98 42.13 11.133
836 1 22.98 42.13 14.844
837 1 22.98 42.13 18.555
838 1 22.98 42.13 22.266
839 1 22.98 42.13 25.977
840 1 22.98 42.13 29.688
841 1 22.98 42.13 33.399
842 1 22.98 42.13 37.11
843 1 22.98 42.13 40.821
844 1 22.98 42.13 44.532
845 1 22.98 42.13 48.242999999999995
846 1 22.98 42.13 51.954
847 1 22.98 42.13 55.665
848 1 22.98 42.13 59.376
849 1 22.98 45.96 3.711
850 1 22.98 45.96 7.422
851 1 22.98 45.96 11.133
852 1 22.98 45.96 14.844
853 1 22.98 45.96 18.555
854 1 22.98 45.96 22.266
855 1 22.98 45.96 25.977
856 1 22.98 45.96 29.688
857 1 22.98 45.96 33.399
858 1 22.98 45.96 37.11
859 1 22.98 45.96 40.821
860 1 22.98 45.96 44.532
861 1 22.98 45.96 48.242999999999995
862 1 22.98 45.96 51.954
863 1 22.98 45.96 55.665
864 1 22.98 45.96 59.376
865 1 22.98 49.79 7.422
866 1 22.98 49.79 11.133
867 1 22.98 49.79 14.844
868 1 22.98 49.79 18.555
869 1 22.98 49.79 22.266
870 1 22.98 49.79 25.977
871 1 22.98 49.79 29.688
872 1 22.98 49.79 33.399
873 1 22.98 49.79 37.11
874 1 22.98 49.79 40.821
875 1 22.98 49.79 44.532
876 1 22.98 49.79 48.242999999999995
877 1 22.98 49.79 51.954
878 1 22.98 49.79 55.665
879 1 22.98 53.620000000000005 11.133
880 1 22.98 53.620000000000005 14.844
881 1 22.98 53.620000000000005 18.555
882 1 22.98 53.620000000000005 22.266
883 1 22.98 53.620000000000005 25.977
884 1 22.98 53.620000000000005 29.688
885 1 22.98 53.620000000000005 33.399
886 1 22.98 53.620000000000005 37.11
887 1 22.98 53.620000000000005 40.821
888 1 22.98 53.620000000000005 44.532
889 1 22.98 53.620000000000005 48.242999999999995
890 1 22.98 53.620000000000005 51.954
891 1 22.98 57.45 14.844
892 1 22.98 57.45 18.555
893 1 22.98 57.45 22.266
894 1 22.98 57.45 25.977
895 1 22.98 57.45 29.688
896 1 22.98 57.45 33.399
897 1 22.98 57.45 37.11
898 1 22.98 57.45 40.821
899 1 22.98 57.45 44.532
900 1 22.98 57.45 48.242999999999995
901 1 22.98 61.28 18.555
902 1 22.98 61.28 22.266
903 1 22.98 61.28 25.977
904 1 22.98 61.28 29.688
905 1 22.98 61.28 33.399
906 1 22.98 61.28 37.11
907 1 22.98 61.28 40.821
908 1 22.98 61.28 44.532
909 1 26.810000000000002 3.83 14.844
910 1 26.810000000000002 3.83 18.555
911 1 26.810000000000002 3.83 22.266
912 1 26.810000000000002 3.83 25.977
913 1 26.810000000000002 3.83 29.688
914 1 26.810000000000002 3.83 33.399
915 1 26.810000000000002 3.83 37.11
916 1 26.810000000000002 3.83 40.821
917 1 26.810000000000002 3.83 44.532
918 1 26.810000000000002 3.83 48.242999999999995
919 1 26.810000000000002 7.66 11.133
920 1 26.810000000000002 7.66 14.844
921 1 26.810000000000002 7.66 18.555
922 1 26.810000000000002 7.66 22.266
923 1 26.810000000000002 7.66 25.977
924 1 26.810000000000002 7.66 29.688
925 1 26.810000000000002 7.66 33.399
926 1 26.810000000000002 7.66 37.11
927 1 26.810000000000002 7.66 40.821
928 1 26.810000000000002 7.66 44.532
929 1 26.810000000000002 7.66 48.242999999999995
930 1 26.810000000000002 7.66 51.954
931 1 26.810000000000002 11.49 7.422
932 1 26.810000000000002 11.49 11.133
933 1 26.810000000000002 11.49 14.844
934 1 26.810000000000002 11.49 18.555
935 1 26.810000000000002 11.49 22.266
936 1 26.810000000000002 11.49 25.977
937 1 26.810000000000002 11.49 29.688
938 1 26.810000000000002 11.49 33.399
939 1 26.810000000000002 11.49 37.11
940 1 26.810000000000002 11.49 40.821
941 1 26.810000000000002 11.49 44.532
942 1 26.810000000000002 11.49 48.242999999999995
943 1 26.810000000000002 11.49 51.954
944 1 26.810000000000002 11.49 55.665
945 1 26.810000000000002 15.32 3.711
946 1 26.810000000000002 15.32 7.422
947 1 26.810000000000002 15.32 11.133
948 1 26.810000000000002 15.32 14.844
949 1 26.810000000000002 15.32 18.555
950 1 26.810000000000002 15.32 22.266
951 1 26.810000000000002 15.32 25.977
952 1 26.810000000000002 15.32 29.688
953 1 26.810000000000002 15.32 33.399
954 1 26.810000000000002 15.32 37.11
955 1 26.810000000000002 15.32 40.821
956 1 26.810000000000002 15.32 44.532
957 1 26.810000000000002 15.32 48.242999999999995
958 1 26.810000000000002 15.32 51.954
959 1 26.810000000000002 15.32 55.665
960 1 26.810000000000002 19.15 3.711
961 1 26.810000000000002 19.15 7.422
962 1 26.810000000000002 19.15 11.133
963 1 26.810000000000002 19.15 14.844
964 1 26.810000000000002 19.15 18.555
965 1 26.810000000000002 19.15 22.266
966 1 26.810000000000002 19.15 25.977
967 1 26.810000000000002 19.15 29.688
968 1 26.810000000000002 19.15 33.399
969 1 26.810000000000002 19.15 37.11
970 1 26.810000000000002 19.15 40.821
971 1 26.810000000000002 19.15 44.532
972 1 26.810000000000002 19.15 48.242999999999995
973 1 26.810000000000002 19.15 51.954
974 1 26.810000000000002 19.15 55.665
975 1 26.810000000000002 19.15 59.376
976 1 26.810000000000002 22.98 3.711
977 1 26.810000000000002 22.98 7.422
978 1 26.810000000000002 22.98 11.133
979 1 26.810000000000002 22.98 14.844
980 1 26.810000000000002 22.98 18.555
981 1 26.810000000000002 22.98 22.266
982 1 26.810000000000002 22.98 25.977
983 1 26.810000000000002 22.98 29.688
984 1 26.810000000000002 22.98 33.399
985 1 26.810000000000002 22.98 37.11
986 1 26.810000000000002 22.98 40.821
987 1 26.810000000000002 22.98 44.532
988 1 26.810000000000002 22.98 48.242999999999995
989 1 26.810000000000002 22.98 51.954
990 1 26.810000000000002 22.98 55.665
991 1 26.810000000000002 22.98 59.376
992 1 26.810000000000002 26.810000000000002 3.711
993 1 26.810000000000002 26.810000000000002 7.422
994 1 26.810000000000002 26.810000000000002 11.133
995 1 26.810000000000002 26.810000000000002 14.844
996 1 26.810000000000002 26.810000000000002 18.555
997 1 26.810000000000002 26.810000000000002 22.266
998 1 26.810000000000002 26.810000000000002 25.977
999 1 26.810000000000002 26.810000000000002 29.688
1000 1 26.810000000000002 26.810000000000002 33.399
1001 1 26.810000000000002 26.810000000000002 37.11
1002 1 26.810000000000002 26.810000000000002 40.821
1003 1 26.810000000000002 26.810000000000002 44.532
1004 1 26.810000000000002 26.810000000000002 48.242999999999995
1005 1 26.810000000000002 26.810000000000002 51.954
1006 1 26.810000000000002 26.810000000000002 55.665
1007 1 26.810000000000002 26.810000000000002 59.376
1008 1 26.810000000000002 30.64 3.711
1009 1 26.810000000000002 30.64 7.422
1010 1 26.810000000000002 30.64 11.133
1011 1 26.810000000000002 30.64 14.844
1012 1 26.810000000000002 30.64 18.555
1013 1 26.810000000000002 30.64 22.266
1014 1 26.810000000000002 30.64 25.977
1015 1 26.810000000000002 30.64 29.688
1016 1 26.810000000000002 30.64 33.399
1017 1 26.810000000000002 30.64 37.11
1018 1 26.810000000000002 30.64 40.821
1019 1 26.810000000000002 30.64 44.532
1020 1 26.810000000000002 30.64 48.242999999999995
1021 1 26.810000000000002 30.64 51.954
1022 1 26.810000000000002 30.64 55.665
1023 1 26.810000000000002 30.64 59.376
1024 1 26.810000000000002 34.47 3.711
1025 1 26.810000000000002 34.47 7.422
1026 1 26.810000000000002 34.47 11.133
1027 1 26.810000000000002 34.47 14.844
1028 1 26.810000000000002 34.47 18.555
1029 1 26.810000000000002 34.47 22.266
1030 1 26.810000000000002 34.47 25.977
1031 1 26.810000000000002 34.47 29.688
1032 1 26.810000000000002 34.47 33.399
1033 1 26.810000000000002 34.47 37.11
1034 1 26.810000000000002 34.47 40.821
1035 1 26.810000000000002 34.47 44.532
1036 1 26.810000000000002 34.47 48.242999999999995
1037 1 26.810000000000002 34.47 51.954
1038 1 26.810000000000002 34.47 55.665
1039 1 26.810000000000002 34.47 59.376
1040 1 26.810000000000002 38.3 3.711
1041 1 26.810000000000002 38.3 7.422
1042 1 26.810000000000002 38.3 11.133
1043 1 26.810000000000002 38.3 14.844