Truncated_Octahedron_Major_1000_atoms

1000 atoms
2 atom types
-8.085 36.81 xlo xhi
-8.085 36.81 ylo yhi
-8.1445 35.977000000000004 zlo zhi
0 0 0 xy xz yz

Atoms

1 1 3.83 7.66 11.133
2 1 3.83 7.66 14.844
3 1 3.83 7.66 18.555
4 1 3.83 11.49 7.422
5 1 3.83 11.49 11.133
6 1 3.83 11.49 14.844
7 1 3.83 11.49 18.555
8 1 3.83 11.49 22.266
9 1 3.83 15.32 7.422
10 1 3.83 15.32 11.133
11 1 3.83 15.32 14.844
12 1 3.83 15.32 18.555
13 1 3.83 15.32 22.266
14 1 3.83 19.15 7.422
15 1 3.83 19.15 11.133
16 1 3.83 19.15 14.844
17 1 3.83 19.15 18.555
18 1 3.83 19.15 22.266
19 1 3.83 22.98 11.133
20 1 3.83 22.98 14.844
21 1 3.83 22.98 18.555
22 1 7.66 3.83 11.133
23 1 7.66 3.83 14.844
24 1 7.66 3.83 18.555
25 1 7.66 7.66 7.422
26 1 7.66 7.66 11.133
27 1 7.66 7.66 14.844
28 1 7.66 7.66 18.555
29 1 7.66 7.66 22.266
30 1 7.66 11.49 3.711
31 1 7.66 11.49 7.422
32 1 7.66 11.49 11.133
33 1 7.66 11.49 14.844
34 1 7.66 11.49 18.555
35 1 7.66 11.49 22.266
36 1 7.66 11.49 25.977
37 1 7.66 15.32 3.711
38 1 7.66 15.32 7.422
39 1 7.66 15.32 11.133
40 1 7.66 15.32 14.844
41 1 7.66 15.32 18.555
42 1 7.66 15.32 22.266
43 1 7.66 15.32 25.977
44 1 7.66 19.15 3.711
45 1 7.66 19.15 7.422
46 1 7.66 19.15 11.133
47 1 7.66 19.15 14.844
48 1 7.66 19.15 18.555
49 1 7.66 19.15 22.266
50 1 7.66 19.15 25.977
51 1 7.66 22.98 7.422
52 1 7.66 22.98 11.133
53 1 7.66 22.98 14.844
54 1 7.66 22.98 18.555
55 1 7.66 22.98 22.266
56 1 7.66 26.810000000000002 11.133
57 1 7.66 26.810000000000002 14.844
58 1 7.66 26.810000000000002 18.555
59 1 11.49 3.83 7.422
60 1 11.49 3.83 11.133
61 1 11.49 3.83 14.844
62 1 11.49 3.83 18.555
63 1 11.49 3.83 22.266
64 1 11.49 7.66 3.711
65 1 11.49 7.66 7.422
66 1 11.49 7.66 11.133
67 1 11.49 7.66 14.844
68 1 11.49 7.66 18.555
69 1 11.49 7.66 22.266
70 1 11.49 7.66 25.977
71 1 11.49 11.49 3.711
72 1 11.49 11.49 7.422
73 1 11.49 11.49 11.133
74 1 11.49 11.49 14.844
75 1 11.49 11.49 18.555
76 1 11.49 11.49 22.266
77 1 11.49 11.49 25.977
78 1 11.49 15.32 3.711
79 1 11.49 15.32 7.422
80 1 11.49 15.32 11.133
81 1 11.49 15.32 14.844
82 1 11.49 15.32 18.555
83 1 11.49 15.32 22.266
84 1 11.49 15.32 25.977
85 1 11.49 19.15 3.711
86 1 11.49 19.15 7.422
87 1 11.49 19.15 11.133
88 1 11.49 19.15 14.844
89 1 11.49 19.15 18.555
90 1 11.49 19.15 22.266
91 1 11.49 19.15 25.977
92 1 11.49 22.98 3.711
93 1 11.49 22.98 7.422
94 1 11.49 22.98 11.133
95 1 11.49 22.98 14.844
96 1 11.49 22.98 18.555
97 1 11.49 22.98 22.266
98 1 11.49 22.98 25.977
99 1 11.49 26.810000000000002 7.422
100 1 11.49 26.810000000000002 11.133
101 1 11.49 26.810000000000002 14.844
102 1 11.49 26.810000000000002 18.555
103 1 11.49 26.810000000000002 22.266
104 1 15.32 3.83 7.422
105 1 15.32 3.83 11.133
106 1 15.32 3.83 14.844
107 1 15.32 3.83 18.555
108 1 15.32 3.83 22.266
109 1 15.32 7.66 3.711
110 1 15.32 7.66 7.422
111 1 15.32 7.66 11.133
112 1 15.32 7.66 14.844
113 1 15.32 7.66 18.555
114 1 15.32 7.66 22.266
115 1 15.32 7.66 25.977
116 1 15.32 11.49 3.711
117 1 15.32 11.49 7.422
118 1 15.32 11.49 11.133
119 1 15.32 11.49 14.844
120 1 15.32 11.49 18.555
121 1 15.32 11.49 22.266
122 1 15.32 11.49 25.977
123 1 15.32 15.32 3.711
124 1 15.32 15.32 7.422
125 1 15.32 15.32 11.133
126 1 15.32 15.32 14.844
127 1 15.32 15.32 18.555
128 1 15.32 15.32 22.266
129 1 15.32 15.32 25.977
130 1 15.32 19.15 3.711
131 1 15.32 19.15 7.422
132 1 15.32 19.15 11.133
133 1 15.32 19.15 14.844
134 1 15.32 19.15 18.555
135 1 15.32 19.15 22.266
136 1 15.32 19.15 25.977
137 1 15.32 22.98 3.711
138 1 15.32 22.98 7.422
139 1 15.32 22.98 11.133
140 1 15.32 22.98 14.844
141 1 15.32 22.98 18.555
142 1 15.32 22.98 22.266
143 1 15.32 22.98 25.977
144 1 15.32 26.810000000000002 7.422
145 1 15.32 26.810000000000002 11.133
146 1 15.32 26.810000000000002 14.844
147 1 15.32 26.810000000000002 18.555
148 1 15.32 26.810000000000002 22.266
149 1 19.15 3.83 7.422
150 1 19.15 3.83 11.133
151 1 19.15 3.83 14.844
152 1 19.15 3.83 18.555
153 1 19.15 3.83 22.266
154 1 19.15 7.66 3.711
155 1 19.15 7.66 7.422
156 1 19.15 7.66 11.133
157 1 19.15 7.66 14.844
158 1 19.15 7.66 18.555
159 1 19.15 7.66 22.266
160 1 19.15 7.66 25.977
161 1 19.15 11.49 3.711
162 1 19.15 11.49 7.422
163 1 19.15 11.49 11.133
164 1 19.15 11.49 14.844
165 1 19.15 11.49 18.555
166 1 19.15 11.49 22.266
167 1 19.15 11.49 25.977
168 1 19.15 15.32 3.711
169 1 19.15 15.32 7.422
170 1 19.15 15.32 11.133
171 1 19.15 15.32 14.844
172 1 19.15 15.32 18.555
173 1 19.15 15.32 22.266
174 1 19.15 15.32 25.977
175 1 19.15 19.15 3.711
176 1 19.15 19.15 7.422
177 1 19.15 19.15 11.133
178 1 19.15 19.15 14.844
179 1 19.15 19.15 18.555
180 1 19.15 19.15 22.266
181 1 19.15 19.15 25.977
182 1 19.15 22.98 3.711
183 1 19.15 22.98 7.422
184 1 19.15 22.98 11.133
185 1 19.15 22.98 14.844
186 1 19.15 22.98 18.555
187 1 19.15 22.98 22.266
188 1 19.15 22.98 25.977
189 1 19.15 26.810000000000002 7.422
190 1 19.15 26.810000000000002 11.133
191 1 19.15 26.810000000000002 14.844
192 1 19.15 26.810000000000002 18.555
193 1 19.15 26.810000000000002 22.266
194 1 22.98 3.83 11.133
195 1 22.98 3.83 14.844
196 1 22.98 3.83 18.555
197 1 22.98 7.66 7.422
198 1 22.98 7.66 11.133
199 1 22.98 7.66 14.844
200 1 22.98 7.66 18.555
201 1 22.98 7.66 22.266
202 1 22.98 11.49 3.711
203 1 22.98 11.49 7.422
204 1 22.98 11.49 11.133
205 1 22.98 11.49 14.844
206 1 22.98 11.49 18.555
207 1 22.98 11.49 22.266
208 1 22.98 11.49 25.977
209 1 22.98 15.32 3.711
210 1 22.98 15.32 7.422
211 1 22.98 15.32 11.133
212 1 22.98 15.32 14.844
213 1 22.98 15.32 18.555
214 1 22.98 15.32 22.266
215 1 22.98 15.32 25.977
216 1 22.98 19.15 3.711
217 1 22.98 19.15 7.422
218 1 22.98 19.15 11.133
219 1 22.98 19.15 14.844
220 1 22.98 19.15 18.555
221 1 22.98 19.15 22.266
222 1 22.98 19.15 25.977
223 1 22.98 22.98 7.422
224 1 22.98 22.98 11.133
225 1 22.98 22.98 14.844
226 1 22.98 22.98 18.555
227 1 22.98 22.98 22.266
228 1 22.98 26.810000000000002 11.133
229 1 22.98 26.810000000000002 14.844
230 1 22.98 26.810000000000002 18.555
231 1 26.810000000000002 7.66 11.133
232 1 26.810000000000002 7.66 14.844
233 1 26.810000000000002 7.66 18.555
234 1 26.810000000000002 11.49 7.422
235 1 26.810000000000002 11.49 11.133
236 1 26.810000000000002 11.49 14.844
237 1 26.810000000000002 11.49 18.555
238 1 26.810000000000002 11.49 22.266
239 1 26.810000000000002 15.32 7.422
240 1 26.810000000000002 15.32 11.133
241 1 26.810000000000002 15.32 14.844
242 1 26.810000000000002 15.32 18.555
243 1 26.810000000000002 15.32 22.266
244 1 26.810000000000002 19.15 7.422
245 1 26.810000000000002 19.15 11.133
246 1 26.810000000000002 19.15 14.844
247 1 26.810000000000002 19.15 18.555
248 1 26.810000000000002 19.15 22.266
249 1 26.810000000000002 22.98 11.133
250 1 26.810000000000002 22.98 14.844
251 1 26.810000000000002 22.98 18.555
252 1 1.915 9.575 11.133
253 1 1.915 9.575 14.844
254 1 1.915 9.575 18.555
255 1 1.915 13.405000000000001 11.133
256 1 1.915 13.405000000000001 14.844
257 1 1.915 13.405000000000001 18.555
258 1 1.915 17.235 11.133
259 1 1.915 17.235 14.844
260 1 1.915 17.235 18.555
261 1 1.915 21.065 11.133
262 1 1.915 21.065 14.844
263 1 1.915 21.065 18.555
264 1 5.745 5.745 11.133
265 1 5.745 5.745 14.844
266 1 5.745 5.745 18.555
267 1 5.745 9.575 7.422
268 1 5.745 9.575 11.133
269 1 5.745 9.575 14.844
270 1 5.745 9.575 18.555
271 1 5.745 9.575 22.266
272 1 5.745 13.405000000000001 3.711
273 1 5.745 13.405000000000001 7.422
274 1 5.745 13.405000000000001 11.133
275 1 5.745 13.405000000000001 14.844
276 1 5.745 13.405000000000001 18.555
277 1 5.745 13.405000000000001 22.266
278 1 5.745 17.235 3.711
279 1 5.745 17.235 7.422
280 1 5.745 17.235 11.133
281 1 5.745 17.235 14.844
282 1 5.745 17.235 18.555
283 1 5.745 17.235 22.266
284 1 5.745 21.065 7.422
285 1 5.745 21.065 11.133
286 1 5.745 21.065 14.844
287 1 5.745 21.065 18.555
288 1 5.745 21.065 22.266
289 1 5.745 24.895 11.133
290 1 5.745 24.895 14.844
291 1 5.745 24.895 18.555
292 1 9.575 1.915 11.133
293 1 9.575 1.915 14.844
294 1 9.575 1.915 18.555
295 1 9.575 5.745 7.422
296 1 9.575 5.745 11.133
297 1 9.575 5.745 14.844
298 1 9.575 5.745 18.555
299 1 9.575 5.745 22.266
300 1 9.575 9.575 3.711
301 1 9.575 9.575 7.422
302 1 9.575 9.575 11.133
303 1 9.575 9.575 14.844
304 1 9.575 9.575 18.555
305 1 9.575 9.575 22.266
306 1 9.575 9.575 25.977
307 1 9.575 13.405000000000001 3.711
308 1 9.575 13.405000000000001 7.422
309 1 9.575 13.405000000000001 11.133
310 1 9.575 13.405000000000001 14.844
311 1 9.575 13.405000000000001 18.555
312 1 9.575 13.405000000000001 22.266
313 1 9.575 13.405000000000001 25.977
314 1 9.575 17.235 3.711
315 1 9.575 17.235 7.422
316 1 9.575 17.235 11.133
317 1 9.575 17.235 14.844
318 1 9.575 17.235 18.555
319 1 9.575 17.235 22.266
320 1 9.575 17.235 25.977
321 1 9.575 21.065 3.711
322 1 9.575 21.065 7.422
323 1 9.575 21.065 11.133
324 1 9.575 21.065 14.844
325 1 9.575 21.065 18.555
326 1 9.575 21.065 22.266
327 1 9.575 21.065 25.977
328 1 9.575 24.895 7.422
329 1 9.575 24.895 11.133
330 1 9.575 24.895 14.844
331 1 9.575 24.895 18.555
332 1 9.575 24.895 22.266
333 1 13.405000000000001 1.915 7.422
334 1 13.405000000000001 1.915 11.133
335 1 13.405000000000001 1.915 14.844
336 1 13.405000000000001 1.915 18.555
337 1 13.405000000000001 1.915 22.266
338 1 13.405000000000001 5.745 3.711
339 1 13.405000000000001 5.745 7.422
340 1 13.405000000000001 5.745 11.133
341 1 13.405000000000001 5.745 14.844
342 1 13.405000000000001 5.745 18.555
343 1 13.405000000000001 5.745 22.266
344 1 13.405000000000001 5.745 25.977
345 1 13.405000000000001 9.575 3.711
346 1 13.405000000000001 9.575 7.422
347 1 13.405000000000001 9.575 11.133
348 1 13.405000000000001 9.575 14.844
349 1 13.405000000000001 9.575 18.555
350 1 13.405000000000001 9.575 22.266
351 1 13.405000000000001 9.575 25.977
352 1 13.405000000000001 13.405000000000001 3.711
353 1 13.405000000000001 13.405000000000001 7.422
354 1 13.405000000000001 13.405000000000001 11.133
355 1 13.405000000000001 13.405000000000001 14.844
356 1 13.405000000000001 13.405000000000001 18.555
357 1 13.405000000000001 13.405000000000001 22.266
358 1 13.405000000000001 13.405000000000001 25.977
359 1 13.405000000000001 17.235 3.711
360 1 13.405000000000001 17.235 7.422
361 1 13.405000000000001 17.235 11.133
362 1 13.405000000000001 17.235 14.844
363 1 13.405000000000001 17.235 18.555
364 1 13.405000000000001 17.235 22.266
365 1 13.405000000000001 17.235 25.977
366 1 13.405000000000001 21.065 3.711
367 1 13.405000000000001 21.065 7.422
368 1 13.405000000000001 21.065 11.133
369 1 13.405000000000001 21.065 14.844
370 1 13.405000000000001 21.065 18.555
371 1 13.405000000000001 21.065 22.266
372 1 13.405000000000001 21.065 25.977
373 1 13.405000000000001 24.895 3.711
374 1 13.405000000000001 24.895 7.422
375 1 13.405000000000001 24.895 11.133
376 1 13.405000000000001 24.895 14.844
377 1 13.405000000000001 24.895 18.555
378 1 13.405000000000001 24.895 22.266
379 1 13.405000000000001 24.895 25.977
380 1 17.235 1.915 7.422
381 1 17.235 1.915 11.133
382 1 17.235 1.915 14.844
383 1 17.235 1.915 18.555
384 1 17.235 1.915 22.266
385 1 17.235 5.745 3.711
386 1 17.235 5.745 7.422
387 1 17.235 5.745 11.133
388 1 17.235 5.745 14.844
389 1 17.235 5.745 18.555
390 1 17.235 5.745 22.266
391 1 17.235 5.745 25.977
392 1 17.235 9.575 3.711
393 1 17.235 9.575 7.422
394 1 17.235 9.575 11.133
395 1 17.235 9.575 14.844
396 1 17.235 9.575 18.555
397 1 17.235 9.575 22.266
398 1 17.235 9.575 25.977
399 1 17.235 13.405000000000001 3.711
400 1 17.235 13.405000000000001 7.422
401 1 17.235 13.405000000000001 11.133
402 1 17.235 13.405000000000001 14.844
403 1 17.235 13.405000000000001 18.555
404 1 17.235 13.405000000000001 22.266
405 1 17.235 13.405000000000001 25.977
406 1 17.235 17.235 3.711
407 1 17.235 17.235 7.422
408 1 17.235 17.235 11.133
409 1 17.235 17.235 14.844
410 1 17.235 17.235 18.555
411 1 17.235 17.235 22.266
412 1 17.235 17.235 25.977
413 1 17.235 21.065 3.711
414 1 17.235 21.065 7.422
415 1 17.235 21.065 11.133
416 1 17.235 21.065 14.844
417 1 17.235 21.065 18.555
418 1 17.235 21.065 22.266
419 1 17.235 21.065 25.977
420 1 17.235 24.895 3.711
421 1 17.235 24.895 7.422
422 1 17.235 24.895 11.133
423 1 17.235 24.895 14.844
424 1 17.235 24.895 18.555
425 1 17.235 24.895 22.266
426 1 17.235 24.895 25.977
427 1 21.065 1.915 11.133
428 1 21.065 1.915 14.844
429 1 21.065 1.915 18.555
430 1 21.065 5.745 7.422
431 1 21.065 5.745 11.133
432 1 21.065 5.745 14.844
433 1 21.065 5.745 18.555
434 1 21.065 5.745 22.266
435 1 21.065 9.575 3.711
436 1 21.065 9.575 7.422
437 1 21.065 9.575 11.133
438 1 21.065 9.575 14.844
439 1 21.065 9.575 18.555
440 1 21.065 9.575 22.266
441 1 21.065 9.575 25.977
442 1 21.065 13.405000000000001 3.711
443 1 21.065 13.405000000000001 7.422
444 1 21.065 13.405000000000001 11.133
445 1 21.065 13.405000000000001 14.844
446 1 21.065 13.405000000000001 18.555
447 1 21.065 13.405000000000001 22.266
448 1 21.065 13.405000000000001 25.977
449 1 21.065 17.235 3.711
450 1 21.065 17.235 7.422
451 1 21.065 17.235 11.133
452 1 21.065 17.235 14.844
453 1 21.065 17.235 18.555
454 1 21.065 17.235 22.266
455 1 21.065 17.235 25.977
456 1 21.065 21.065 3.711
457 1 21.065 21.065 7.422
458 1 21.065 21.065 11.133
459 1 21.065 21.065 14.844
460 1 21.065 21.065 18.555
461 1 21.065 21.065 22.266
462 1 21.065 21.065 25.977
463 1 21.065 24.895 7.422
464 1 21.065 24.895 11.133
465 1 21.065 24.895 14.844
466 1 21.065 24.895 18.555
467 1 21.065 24.895 22.266
468 1 24.895 5.745 11.133
469 1 24.895 5.745 14.844
470 1 24.895 5.745 18.555
471 1 24.895 9.575 7.422
472 1 24.895 9.575 11.133
473 1 24.895 9.575 14.844
474 1 24.895 9.575 18.555
475 1 24.895 9.575 22.266
476 1 24.895 13.405000000000001 3.711
477 1 24.895 13.405000000000001 7.422
478 1 24.895 13.405000000000001 11.133
479 1 24.895 13.405000000000001 14.844
480 1 24.895 13.405000000000001 18.555
481 1 24.895 13.405000000000001 22.266
482 1 24.895 13.405000000000001 25.977
483 1 24.895 17.235 3.711
484 1 24.895 17.235 7.422
485 1 24.895 17.235 11.133
486 1 24.895 17.235 14.844
487 1 24.895 17.235 18.555
488 1 24.895 17.235 22.266
489 1 24.895 17.235 25.977
490 1 24.895 21.065 7.422
491 1 24.895 21.065 11.133
492 1 24.895 21.065 14.844
493 1 24.895 21.065 18.555
494 1 24.895 21.065 22.266
495 1 24.895 24.895 11.133
496 1 24.895 24.895 14.844
497 1 24.895 24.895 18.555
498 2 1.915 7.66 16.6995
499 2 1.915 11.49 9.2775
500 2 1.915 11.49 12.9885
501 2 1.915 11.49 16.6995
502 2 1.915 11.49 20.4105
503 2 1.915 15.32 9.2775
504 2 1.915 15.32 12.9885
505 2 1.915 15.32 16.6995
506 2 1.915 15.32 20.4105
507 2 1.915 19.15 9.2775
508 2 1.915 19.15 12.9885
509 2 1.915 19.15 16.6995
510 2 1.915 19.15 20.4105
511 2 1.915 22.98 12.9885
512 2 1.915 22.98 16.6995
513 2 5.745 3.83 12.9885
514 2 5.745 3.83 16.6995
515 2 5.745 7.66 9.2775
516 2 5.745 7.66 12.9885
517 2 5.745 7.66 16.6995
518 2 5.745 7.66 20.4105
519 2 5.745 11.49 5.5665
520 2 5.745 11.49 9.2775
521 2 5.745 11.49 12.9885
522 2 5.745 11.49 16.6995
523 2 5.745 11.49 20.4105
524 2 5.745 11.49 24.121499999999997
525 2 5.745 15.32 5.5665
526 2 5.745 15.32 9.2775
527 2 5.745 15.32 12.9885
528 2 5.745 15.32 16.6995
529 2 5.745 15.32 20.4105
530 2 5.745 15.32 24.121499999999997
531 2 5.745 19.15 5.5665
532 2 5.745 19.15 9.2775
533 2 5.745 19.15 12.9885
534 2 5.745 19.15 16.6995
535 2 5.745 19.15 20.4105
536 2 5.745 19.15 24.121499999999997
537 2 5.745 22.98 9.2775
538 2 5.745 22.98 12.9885
539 2 5.745 22.98 16.6995
540 2 5.745 22.98 20.4105
541 2 5.745 26.810000000000002 12.9885
542 2 5.745 26.810000000000002 16.6995
543 2 9.575 3.83 9.2775
544 2 9.575 3.83 12.9885
545 2 9.575 3.83 16.6995
546 2 9.575 3.83 20.4105
547 2 9.575 7.66 5.5665
548 2 9.575 7.66 9.2775
549 2 9.575 7.66 12.9885
550 2 9.575 7.66 16.6995
551 2 9.575 7.66 20.4105
552 2 9.575 7.66 24.121499999999997
553 2 9.575 11.49 1.8555
554 2 9.575 11.49 5.5665
555 2 9.575 11.49 9.2775
556 2 9.575 11.49 12.9885
557 2 9.575 11.49 16.6995
558 2 9.575 11.49 20.4105
559 2 9.575 11.49 24.121499999999997
560 2 9.575 15.32 1.8555
561 2 9.575 15.32 5.5665
562 2 9.575 15.32 9.2775
563 2 9.575 15.32 12.9885
564 2 9.575 15.32 16.6995
565 2 9.575 15.32 20.4105
566 2 9.575 15.32 24.121499999999997
567 2 9.575 19.15 1.8555
568 2 9.575 19.15 5.5665
569 2 9.575 19.15 9.2775
570 2 9.575 19.15 12.9885
571 2 9.575 19.15 16.6995
572 2 9.575 19.15 20.4105
573 2 9.575 19.15 24.121499999999997
574 2 9.575 22.98 5.5665
575 2 9.575 22.98 9.2775
576 2 9.575 22.98 12.9885
577 2 9.575 22.98 16.6995
578 2 9.575 22.98 20.4105
579 2 9.575 22.98 24.121499999999997
580 2 9.575 26.810000000000002 9.2775
581 2 9.575 26.810000000000002 12.9885
582 2 9.575 26.810000000000002 16.6995
583 2 9.575 26.810000000000002 20.4105
584 2 13.405000000000001 3.83 5.5665
585 2 13.405000000000001 3.83 9.2775
586 2 13.405000000000001 3.83 12.9885
587 2 13.405000000000001 3.83 16.6995
588 2 13.405000000000001 3.83 20.4105
589 2 13.405000000000001 3.83 24.121499999999997
590 2 13.405000000000001 7.66 1.8555
591 2 13.405000000000001 7.66 5.5665
592 2 13.405000000000001 7.66 9.2775
593 2 13.405000000000001 7.66 12.9885
594 2 13.405000000000001 7.66 16.6995
595 2 13.405000000000001 7.66 20.4105
596 2 13.405000000000001 7.66 24.121499999999997
597 2 13.405000000000001 11.49 1.8555
598 2 13.405000000000001 11.49 5.5665
599 2 13.405000000000001 11.49 9.2775
600 2 13.405000000000001 11.49 12.9885
601 2 13.405000000000001 11.49 16.6995
602 2 13.405000000000001 11.49 20.4105
603 2 13.405000000000001 11.49 24.121499999999997
604 2 13.405000000000001 15.32 1.8555
605 2 13.405000000000001 15.32 5.5665
606 2 13.405000000000001 15.32 9.2775
607 2 13.405000000000001 15.32 12.9885
608 2 13.405000000000001 15.32 16.6995
609 2 13.405000000000001 15.32 20.4105
610 2 13.405000000000001 15.32 24.121499999999997
611 2 13.405000000000001 19.15 1.8555
612 2 13.405000000000001 19.15 5.5665
613 2 13.405000000000001 19.15 9.2775
614 2 13.405000000000001 19.15 12.9885
615 2 13.405000000000001 19.15 16.6995
616 2 13.405000000000001 19.15 20.4105
617 2 13.405000000000001 19.15 24.121499999999997
618 2 13.405000000000001 22.98 1.8555
619 2 13.405000000000001 22.98 5.5665
620 2 13.405000000000001 22.98 9.2775
621 2 13.405000000000001 22.98 12.9885
622 2 13.405000000000001 22.98 16.6995
623 2 13.405000000000001 22.98 20.4105
624 2 13.405000000000001 22.98 24.121499999999997
625 2 13.405000000000001 26.810000000000002 5.5665
626 2 13.405000000000001 26.810000000000002 9.2775
627 2 13.405000000000001 26.810000000000002 12.9885
628 2 13.405000000000001 26.810000000000002 16.6995
629 2 13.405000000000001 26.810000000000002 20.4105
630 2 13.405000000000001 26.810000000000002 24.121499999999997
631 2 17.235 3.83 5.5665
632 2 17.235 3.83 9.2775
633 2 17.235 3.83 12.9885
634 2 17.235 3.83 16.6995
635 2 17.235 3.83 20.4105
636 2 17.235 3.83 24.121499999999997
637 2 17.235 7.66 1.8555
638 2 17.235 7.66 5.5665
639 2 17.235 7.66 9.2775
640 2 17.235 7.66 12.9885
641 2 17.235 7.66 16.6995
642 2 17.235 7.66 20.4105
643 2 17.235 7.66 24.121499999999997
644 2 17.235 11.49 1.8555
645 2 17.235 11.49 5.5665
646 2 17.235 11.49 9.2775
647 2 17.235 11.49 12.9885
648 2 17.235 11.49 16.6995
649 2 17.235 11.49 20.4105
650 2 17.235 11.49 24.121499999999997
651 2 17.235 15.32 1.8555
652 2 17.235 15.32 5.5665
653 2 17.235 15.32 9.2775
654 2 17.235 15.32 12.9885
655 2 17.235 15.32 16.6995
656 2 17.235 15.32 20.4105
657 2 17.235 15.32 24.121499999999997
658 2 17.235 19.15 1.8555
659 2 17.235 19.15 5.5665
660 2 17.235 19.15 9.2775
661 2 17.235 19.15 12.9885
662 2 17.235 19.15 16.6995
663 2 17.235 19.15 20.4105
664 2 17.235 19.15 24.121499999999997
665 2 17.235 22.98 1.8555
666 2 17.235 22.98 5.5665
667 2 17.235 22.98 9.2775
668 2 17.235 22.98 12.9885
669 2 17.235 22.98 16.6995
670 2 17.235 22.98 20.4105
671 2 17.235 22.98 24.121499999999997
672 2 17.235 26.810000000000002 5.5665
673 2 17.235 26.810000000000002 9.2775
674 2 17.235 26.810000000000002 12.9885
675 2 17.235 26.810000000000002 16.6995
676 2 17.235 26.810000000000002 20.4105
677 2 17.235 26.810000000000002 24.121499999999997
678 2 21.065 3.83 9.2775
679 2 21.065 3.83 12.9885
680 2 21.065 3.83 16.6995
681 2 21.065 3.83 20.4105
682 2 21.065 7.66 5.5665
683 2 21.065 7.66 9.2775
684 2 21.065 7.66 12.9885
685 2 21.065 7.66 16.6995
686 2 21.065 7.66 20.4105
687 2 21.065 7.66 24.121499999999997
688 2 21.065 11.49 1.8555
689 2 21.065 11.49 5.5665
690 2 21.065 11.49 9.2775
691 2 21.065 11.49 12.9885
692 2 21.065 11.49 16.6995
693 2 21.065 11.49 20.4105
694 2 21.065 11.49 24.121499999999997
695 2 21.065 15.32 1.8555
696 2 21.065 15.32 5.5665
697 2 21.065 15.32 9.2775
698 2 21.065 15.32 12.9885
699 2 21.065 15.32 16.6995
700 2 21.065 15.32 20.4105
701 2 21.065 15.32 24.121499999999997
702 2 21.065 19.15 1.8555
703 2 21.065 19.15 5.5665
704 2 21.065 19.15 9.2775
705 2 21.065 19.15 12.9885
706 2 21.065 19.15 16.6995
707 2 21.065 19.15 20.4105
708 2 21.065 19.15 24.121499999999997
709 2 21.065 22.98 5.5665
710 2 21.065 22.98 9.2775
711 2 21.065 22.98 12.9885
712 2 21.065 22.98 16.6995
713 2 21.065 22.98 20.4105
714 2 21.065 22.98 24.121499999999997
715 2 21.065 26.810000000000002 9.2775
716 2 21.065 26.810000000000002 12.9885
717 2 21.065 26.810000000000002 16.6995
718 2 21.065 26.810000000000002 20.4105
719 2 24.895 3.83 12.9885
720 2 24.895 3.83 16.6995
721 2 24.895 7.66 9.2775
722 2 24.895 7.66 12.9885
723 2 24.895 7.66 16.6995
724 2 24.895 7.66 20.4105
725 2 24.895 11.49 5.5665
726 2 24.895 11.49 9.2775
727 2 24.895 11.49 12.9885
728 2 24.895 11.49 16.6995
729 2 24.895 11.49 20.4105
730 2 24.895 11.49 24.121499999999997
731 2 24.895 15.32 5.5665
732 2 24.895 15.32 9.2775
733 2 24.895 15.32 12.9885
734 2 24.895 15.32 16.6995
735 2 24.895 15.32 20.4105
736 2 24.895 15.32 24.121499999999997
737 2 24.895 19.15 5.5665
738 2 24.895 19.15 9.2775
739 2 24.895 19.15 12.9885
740 2 24.895 19.15 16.6995
741 2 24.895 19.15 20.4105
742 2 24.895 19.15 24.121499999999997
743 2 24.895 22.98 9.2775
744 2 24.895 22.98 12.9885
745 2 24.895 22.98 16.6995
746 2 24.895 22.98 20.4105
747 2 24.895 26.810000000000002 12.9885
748 2 24.895 26.810000000000002 16.6995
749 2 3.83 5.745 12.9885
750 2 3.83 5.745 16.6995
751 2 3.83 9.575 9.2775
752 2 3.83 9.575 12.9885
753 2 3.83 9.575 16.6995
754 2 3.83 9.575 20.4105
755 2 3.83 13.405000000000001 5.5665
756 2 3.83 13.405000000000001 9.2775
757 2 3.83 13.405000000000001 12.9885
758 2 3.83 13.405000000000001 16.6995
759 2 3.83 13.405000000000001 20.4105
760 2 3.83 13.405000000000001 24.121499999999997
761 2 3.83 17.235 5.5665
762 2 3.83 17.235 9.2775
763 2 3.83 17.235 12.9885
764 2 3.83 17.235 16.6995
765 2 3.83 17.235 20.4105
766 2 3.83 17.235 24.121499999999997
767 2 3.83 21.065 9.2775
768 2 3.83 21.065 12.9885
769 2 3.83 21.065 16.6995
770 2 3.83 21.065 20.4105
771 2 3.83 24.895 12.9885
772 2 3.83 24.895 16.6995
773 2 7.66 1.915 12.9885
774 2 7.66 1.915 16.6995
775 2 7.66 5.745 9.2775
776 2 7.66 5.745 12.9885
777 2 7.66 5.745 16.6995
778 2 7.66 5.745 20.4105
779 2 7.66 9.575 5.5665
780 2 7.66 9.575 9.2775
781 2 7.66 9.575 12.9885
782 2 7.66 9.575 16.6995
783 2 7.66 9.575 20.4105
784 2 7.66 9.575 24.121499999999997
785 2 7.66 13.405000000000001 1.8555
786 2 7.66 13.405000000000001 5.5665
787 2 7.66 13.405000000000001 9.2775
788 2 7.66 13.405000000000001 12.9885
789 2 7.66 13.405000000000001 16.6995
790 2 7.66 13.405000000000001 20.4105
791 2 7.66 13.405000000000001 24.121499999999997
792 2 7.66 17.235 1.8555
793 2 7.66 17.235 5.5665
794 2 7.66 17.235 9.2775
795 2 7.66 17.235 12.9885
796 2 7.66 17.235 16.6995
797 2 7.66 17.235 20.4105
798 2 7.66 17.235 24.121499999999997
799 2 7.66 21.065 5.5665
800 2 7.66 21.065 9.2775
801 2 7.66 21.065 12.9885
802 2 7.66 21.065 16.6995
803 2 7.66 21.065 20.4105
804 2 7.66 21.065 24.121499999999997
805 2 7.66 24.895 9.2775
806 2 7.66 24.895 12.9885
807 2 7.66 24.895 16.6995
808 2 7.66 24.895 20.4105
809 2 11.49 1.915 9.2775
810 2 11.49 1.915 12.9885
811 2 11.49 1.915 16.6995
812 2 11.49 1.915 20.4105
813 2 11.49 5.745 5.5665
814 2 11.49 5.745 9.2775
815 2 11.49 5.745 12.9885
816 2 11.49 5.745 16.6995
817 2 11.49 5.745 20.4105
818 2 11.49 5.745 24.121499999999997
819 2 11.49 9.575 1.8555
820 2 11.49 9.575 5.5665
821 2 11.49 9.575 9.2775
822 2 11.49 9.575 12.9885
823 2 11.49 9.575 16.6995
824 2 11.49 9.575 20.4105
825 2 11.49 9.575 24.121499999999997
826 2 11.49 13.405000000000001 1.8555
827 2 11.49 13.405000000000001 5.5665
828 2 11.49 13.405000000000001 9.2775
829 2 11.49 13.405000000000001 12.9885
830 2 11.49 13.405000000000001 16.6995
831 2 11.49 13.405000000000001 20.4105
832 2 11.49 13.405000000000001 24.121499999999997
833 2 11.49 17.235 1.8555
834 2 11.49 17.235 5.5665
835 2 11.49 17.235 9.2775
836 2 11.49 17.235 12.9885
837 2 11.49 17.235 16.6995
838 2 11.49 17.235 20.4105
839 2 11.49 17.235 24.121499999999997
840 2 11.49 21.065 1.8555
841 2 11.49 21.065 5.5665
842 2 11.49 21.065 9.2775
843 2 11.49 21.065 12.9885
844 2 11.49 21.065 16.6995
845 2 11.49 21.065 20.4105
846 2 11.49 21.065 24.121499999999997
847 2 11.49 24.895 5.5665
848 2 11.49 24.895 9.2775
849 2 11.49 24.895 12.9885
850 2 11.49 24.895 16.6995
851 2 11.49 24.895 20.4105
852 2 11.49 24.895 24.121499999999997
853 2 15.32 1.915 9.2775
854 2 15.32 1.915 12.9885
855 2 15.32 1.915 16.6995
856 2 15.32 1.915 20.4105
857 2 15.32 5.745 5.5665
858 2 15.32 5.745 9.2775
859 2 15.32 5.745 12.9885
860 2 15.32 5.745 16.6995
861 2 15.32 5.745 20.4105
862 2 15.32 5.745 24.121499999999997
863 2 15.32 9.575 1.8555
864 2 15.32 9.575 5.5665
865 2 15.32 9.575 9.2775
866 2 15.32 9.575 12.9885
867 2 15.32 9.575 16.6995
868 2 15.32 9.575 20.4105
869 2 15.32 9.575 24.121499999999997
870 2 15.32 13.405000000000001 1.8555
871 2 15.32 13.405000000000001 5.5665
872 2 15.32 13.405000000000001 9.2775
873 2 15.32 13.405000000000001 12.9885
874 2 15.32 13.405000000000001 16.6995
875 2 15.32 13.405000000000001 20.4105
876 2 15.32 13.405000000000001 24.121499999999997
877 2 15.32 17.235 1.8555
878 2 15.32 17.235 5.5665
879 2 15.32 17.235 9.2775
880 2 15.32 17.235 12.9885
881 2 15.32 17.235 16.6995
882 2 15.32 17.235 20.4105
883 2 15.32 17.235 24.121499999999997
884 2 15.32 21.065 1.8555
885 2 15.32 21.065 5.5665
886 2 15.32 21.065 9.2775
887 2 15.32 21.065 12.9885
888 2 15.32 21.065 16.6995
889 2 15.32 21.065 20.4105
890 2 15.32 21.065 24.121499999999997
891 2 15.32 24.895 5.5665
892 2 15.32 24.895 9.2775
893 2 15.32 24.895 12.9885
894 2 15.32 24.895 16.6995
895 2 15.32 24.895 20.4105
896 2 15.32 24.895 24.121499999999997
897 2 19.15 1.915 9.2775
898 2 19.15 1.915 12.9885
899 2 19.15 1.915 16.6995
900 2 19.15 1.915 20.4105
901 2 19.15 5.745 5.5665
902 2 19.15 5.745 9.2775
903 2 19.15 5.745 12.9885
904 2 19.15 5.745 16.6995
905 2 19.15 5.745 20.4105
906 2 19.15 5.745 24.121499999999997
907 2 19.15 9.575 1.8555
908 2 19.15 9.575 5.5665
909 2 19.15 9.575 9.2775
910 2 19.15 9.575 12.9885
911 2 19.15 9.575 16.6995
912 2 19.15 9.575 20.4105
913 2 19.15 9.575 24.121499999999997
914 2 19.15 13.405000000000001 1.8555
915 2 19.15 13.405000000000001 5.5665
916 2 19.15 13.405000000000001 9.2775
917 2 19.15 13.405000000000001 12.9885
918 2 19.15 13.405000000000001 16.6995
919 2 19.15 13.405000000000001 20.4105
920 2 19.15 13.405000000000001 24.121499999999997
921 2 19.15 17.235 1.8555
922 2 19.15 17.235 5.5665
923 2 19.15 17.235 9.2775
924 2 19.15 17.235 12.9885
925 2 19.15 17.235 16.6995
926 2 19.15 17.235 20.4105
927 2 19.15 17.235 24.121499999999997
928 2 19.15 21.065 1.8555
929 2 19.15 21.065 5.5665
930 2 19.15 21.065 9.2775
931 2 19.15 21.065 12.9885
932 2 19.15 21.065 16.6995
933 2 19.15 21.065 20.4105
934 2 19.15 21.065 24.121499999999997
935 2 19.15 24.895 5.5665
936 2 19.15 24.895 9.2775
937 2 19.15 24.895 12.9885
938 2 19.15 24.895 16.6995
939 2 19.15 24.895 20.4105
940 2 19.15 24.895 24.121499999999997
941 2 22.98 1.915 12.9885
942 2 22.98 1.915 16.6995
943 2 22.98 5.745 9.2775
944 2 22.98 5.745 12.9885
945 2 22.98 5.745 16.6995
946 2 22.98 5.745 20.4105
947 2 22.98 9.575 5.5665
948 2 22.98 9.575 9.2775
949 2 22.98 9.575 12.9885
950 2 22.98 9.575 16.6995
951 2 22.98 9.575 20.4105
952 2 22.98 9.575 24.121499999999997
953 2 22.98 13.405000000000001 1.8555
954 2 22.98 13.405000000000001 5.5665
955 2 22.98 13.405000000000001 9.2775
956 2 22.98 13.405000000000001 12.9885
957 2 22.98 13.405000000000001 16.6995
958 2 22.98 13.405000000000001 20.4105
959 2 22.98 13.405000000000001 24.121499999999997
960 2 22.98 17.235 1.8555
961 2 22.98 17.235 5.5665
962 2 22.98 17.235 9.2775
963 2 22.98 17.235 12.9885
964 2 22.98 17.235 16.6995
965 2 22.98 17.235 20.4105
966 2 22.98 17.235 24.121499999999997
967 2 22.98 21.065 5.5665
968 2 22.98 21.065 9.2775
969 2 22.98 21.065 12.9885
970 2 22.98 21.065 16.6995
971 2 22.98 21.065 20.4105
972 2 22.98 21.065 24.121499999999997
973 2 22.98 24.895 9.2775
974 2 22.98 24.895 12.9885
975 2 22.98 24.895 16.6995
976 2 22.98 24.895 20.4105
977 2 26.810000000000002 5.745 12.9885
978 2 26.810000000000002 5.745 16.6995
979 2 26.810000000000002 9.575 9.2775
980 2 26.810000000000002 9.575 12.9885
981 2 26.810000000000002 9.575 16.6995
982 2 26.810000000000002 9.575 20.4105
983 2 26.810000000000002 13.405000000000001 5.5665
984 2 26.810000000000002 13.405000000000001 9.2775
985 2 26.810000000000002 13.405000000000001 12.9885
986 2 26.810000000000002 13.405000000000001 16.6995
987 2 26.810000000000002 13.405000000000001 20.4105
988 2 26.810000000000002 13.405000000000001 24.121499999999997
989 2 26.810000000000002 17.235 5.5665
990 2 26.810000000000002 17.235 9.2775
991 2 26.810000000000002 17.235 12.9885
992 2 26.810000000000002 17.235 16.6995
993 2 26.810000000000002 17.235 20.4105
994 2 26.810000000000002 17.235 24.121499999999997
995 2 26.810000000000002 21.065 9.2775
996 2 26.810000000000002 21.065 12.9885
997 2 26.810000000000002 21.065 16.6995
998 2 26.810000000000002 21.065 20.4105
999 2 26.810000000000002 24.895 12.9885
1000 2 26.810000000000002 24.895 16.6995

Masses

1 55.85
2 195.08

