Truncated_Octahedron_Minor_11000_atoms

11000 atoms
2 atom types
-10.0 80.855 xlo xhi
-10.0 80.855 ylo yhi
-10.0 78.6535 zlo zhi
0 0 0 xy xz yz

Atoms

1 1 0.0 30.64 29.688
2 1 0.0 30.64 33.399
3 1 0.0 30.64 37.11
4 1 0.0 30.64 40.821
5 1 0.0 34.47 29.688
6 1 0.0 34.47 33.399
7 1 0.0 34.47 37.11
8 1 0.0 34.47 40.821
9 1 0.0 38.3 29.688
10 1 0.0 38.3 33.399
11 1 0.0 38.3 37.11
12 1 0.0 38.3 40.821
13 1 0.0 42.13 29.688
14 1 0.0 42.13 33.399
15 1 0.0 42.13 37.11
16 1 0.0 42.13 40.821
17 1 3.83 22.98 33.399
18 1 3.83 22.98 37.11
19 1 3.83 26.810000000000002 29.688
20 1 3.83 26.810000000000002 33.399
21 1 3.83 26.810000000000002 37.11
22 1 3.83 26.810000000000002 40.821
23 1 3.83 30.64 25.977
24 1 3.83 30.64 29.688
25 1 3.83 30.64 33.399
26 1 3.83 30.64 37.11
27 1 3.83 30.64 40.821
28 1 3.83 30.64 44.532
29 1 3.83 34.47 22.266
30 1 3.83 34.47 25.977
31 1 3.83 34.47 29.688
32 1 3.83 34.47 33.399
33 1 3.83 34.47 37.11
34 1 3.83 34.47 40.821
35 1 3.83 34.47 44.532
36 1 3.83 34.47 48.242999999999995
37 1 3.83 38.3 22.266
38 1 3.83 38.3 25.977
39 1 3.83 38.3 29.688
40 1 3.83 38.3 33.399
41 1 3.83 38.3 37.11
42 1 3.83 38.3 40.821
43 1 3.83 38.3 44.532
44 1 3.83 38.3 48.242999999999995
45 1 3.83 42.13 25.977
46 1 3.83 42.13 29.688
47 1 3.83 42.13 33.399
48 1 3.83 42.13 37.11
49 1 3.83 42.13 40.821
50 1 3.83 42.13 44.532
51 1 3.83 45.96 29.688
52 1 3.83 45.96 33.399
53 1 3.83 45.96 37.11
54 1 3.83 45.96 40.821
55 1 3.83 49.79 33.399
56 1 3.83 49.79 37.11
57 1 7.66 19.15 33.399
58 1 7.66 19.15 37.11
59 1 7.66 22.98 29.688
60 1 7.66 22.98 33.399
61 1 7.66 22.98 37.11
62 1 7.66 22.98 40.821
63 1 7.66 26.810000000000002 25.977
64 1 7.66 26.810000000000002 29.688
65 1 7.66 26.810000000000002 33.399
66 1 7.66 26.810000000000002 37.11
67 1 7.66 26.810000000000002 40.821
68 1 7.66 26.810000000000002 44.532
69 1 7.66 30.64 22.266
70 1 7.66 30.64 25.977
71 1 7.66 30.64 29.688
72 1 7.66 30.64 33.399
73 1 7.66 30.64 37.11
74 1 7.66 30.64 40.821
75 1 7.66 30.64 44.532
76 1 7.66 30.64 48.242999999999995
77 1 7.66 34.47 18.555
78 1 7.66 34.47 22.266
79 1 7.66 34.47 25.977
80 1 7.66 34.47 29.688
81 1 7.66 34.47 33.399
82 1 7.66 34.47 37.11
83 1 7.66 34.47 40.821
84 1 7.66 34.47 44.532
85 1 7.66 34.47 48.242999999999995
86 1 7.66 34.47 51.954
87 1 7.66 38.3 18.555
88 1 7.66 38.3 22.266
89 1 7.66 38.3 25.977
90 1 7.66 38.3 29.688
91 1 7.66 38.3 33.399
92 1 7.66 38.3 37.11
93 1 7.66 38.3 40.821
94 1 7.66 38.3 44.532
95 1 7.66 38.3 48.242999999999995
96 1 7.66 38.3 51.954
97 1 7.66 42.13 22.266
98 1 7.66 42.13 25.977
99 1 7.66 42.13 29.688
100 1 7.66 42.13 33.399
101 1 7.66 42.13 37.11
102 1 7.66 42.13 40.821
103 1 7.66 42.13 44.532
104 1 7.66 42.13 48.242999999999995
105 1 7.66 45.96 25.977
106 1 7.66 45.96 29.688
107 1 7.66 45.96 33.399
108 1 7.66 45.96 37.11
109 1 7.66 45.96 40.821
110 1 7.66 45.96 44.532
111 1 7.66 49.79 29.688
112 1 7.66 49.79 33.399
113 1 7.66 49.79 37.11
114 1 7.66 49.79 40.821
115 1 7.66 53.620000000000005 33.399
116 1 7.66 53.620000000000005 37.11
117 1 11.49 15.32 33.399
118 1 11.49 15.32 37.11
119 1 11.49 19.15 29.688
120 1 11.49 19.15 33.399
121 1 11.49 19.15 37.11
122 1 11.49 19.15 40.821
123 1 11.49 22.98 25.977
124 1 11.49 22.98 29.688
125 1 11.49 22.98 33.399
126 1 11.49 22.98 37.11
127 1 11.49 22.98 40.821
128 1 11.49 22.98 44.532
129 1 11.49 26.810000000000002 22.266
130 1 11.49 26.810000000000002 25.977
131 1 11.49 26.810000000000002 29.688
132 1 11.49 26.810000000000002 33.399
133 1 11.49 26.810000000000002 37.11
134 1 11.49 26.810000000000002 40.821
135 1 11.49 26.810000000000002 44.532
136 1 11.49 26.810000000000002 48.242999999999995
137 1 11.49 30.64 18.555
138 1 11.49 30.64 22.266
139 1 11.49 30.64 25.977
140 1 11.49 30.64 29.688
141 1 11.49 30.64 33.399
142 1 11.49 30.64 37.11
143 1 11.49 30.64 40.821
144 1 11.49 30.64 44.532
145 1 11.49 30.64 48.242999999999995
146 1 11.49 30.64 51.954
147 1 11.49 34.47 14.844
148 1 11.49 34.47 18.555
149 1 11.49 34.47 22.266
150 1 11.49 34.47 25.977
151 1 11.49 34.47 29.688
152 1 11.49 34.47 33.399
153 1 11.49 34.47 37.11
154 1 11.49 34.47 40.821
155 1 11.49 34.47 44.532
156 1 11.49 34.47 48.242999999999995
157 1 11.49 34.47 51.954
158 1 11.49 34.47 55.665
159 1 11.49 38.3 14.844
160 1 11.49 38.3 18.555
161 1 11.49 38.3 22.266
162 1 11.49 38.3 25.977
163 1 11.49 38.3 29.688
164 1 11.49 38.3 33.399
165 1 11.49 38.3 37.11
166 1 11.49 38.3 40.821
167 1 11.49 38.3 44.532
168 1 11.49 38.3 48.242999999999995
169 1 11.49 38.3 51.954
170 1 11.49 38.3 55.665
171 1 11.49 42.13 18.555
172 1 11.49 42.13 22.266
173 1 11.49 42.13 25.977
174 1 11.49 42.13 29.688
175 1 11.49 42.13 33.399
176 1 11.49 42.13 37.11
177 1 11.49 42.13 40.821
178 1 11.49 42.13 44.532
179 1 11.49 42.13 48.242999999999995
180 1 11.49 42.13 51.954
181 1 11.49 45.96 22.266
182 1 11.49 45.96 25.977
183 1 11.49 45.96 29.688
184 1 11.49 45.96 33.399
185 1 11.49 45.96 37.11
186 1 11.49 45.96 40.821
187 1 11.49 45.96 44.532
188 1 11.49 45.96 48.242999999999995
189 1 11.49 49.79 25.977
190 1 11.49 49.79 29.688
191 1 11.49 49.79 33.399
192 1 11.49 49.79 37.11
193 1 11.49 49.79 40.821
194 1 11.49 49.79 44.532
195 1 11.49 53.620000000000005 29.688
196 1 11.49 53.620000000000005 33.399
197 1 11.49 53.620000000000005 37.11
198 1 11.49 53.620000000000005 40.821
199 1 11.49 57.45 33.399
200 1 11.49 57.45 37.11
201 1 15.32 11.49 33.399
202 1 15.32 11.49 37.11
203 1 15.32 15.32 29.688
204 1 15.32 15.32 33.399
205 1 15.32 15.32 37.11
206 1 15.32 15.32 40.821
207 1 15.32 19.15 25.977
208 1 15.32 19.15 29.688
209 1 15.32 19.15 33.399
210 1 15.32 19.15 37.11
211 1 15.32 19.15 40.821
212 1 15.32 19.15 44.532
213 1 15.32 22.98 22.266
214 1 15.32 22.98 25.977
215 1 15.32 22.98 29.688
216 1 15.32 22.98 33.399
217 1 15.32 22.98 37.11
218 1 15.32 22.98 40.821
219 1 15.32 22.98 44.532
220 1 15.32 22.98 48.242999999999995
221 1 15.32 26.810000000000002 18.555
222 1 15.32 26.810000000000002 22.266
223 1 15.32 26.810000000000002 25.977
224 1 15.32 26.810000000000002 29.688
225 1 15.32 26.810000000000002 33.399
226 1 15.32 26.810000000000002 37.11
227 1 15.32 26.810000000000002 40.821
228 1 15.32 26.810000000000002 44.532
229 1 15.32 26.810000000000002 48.242999999999995
230 1 15.32 26.810000000000002 51.954
231 1 15.32 30.64 14.844
232 1 15.32 30.64 18.555
233 1 15.32 30.64 22.266
234 1 15.32 30.64 25.977
235 1 15.32 30.64 29.688
236 1 15.32 30.64 33.399
237 1 15.32 30.64 37.11
238 1 15.32 30.64 40.821
239 1 15.32 30.64 44.532
240 1 15.32 30.64 48.242999999999995
241 1 15.32 30.64 51.954
242 1 15.32 30.64 55.665
243 1 15.32 34.47 11.133
244 1 15.32 34.47 14.844
245 1 15.32 34.47 18.555
246 1 15.32 34.47 22.266
247 1 15.32 34.47 25.977
248 1 15.32 34.47 29.688
249 1 15.32 34.47 33.399
250 1 15.32 34.47 37.11
251 1 15.32 34.47 40.821
252 1 15.32 34.47 44.532
253 1 15.32 34.47 48.242999999999995
254 1 15.32 34.47 51.954
255 1 15.32 34.47 55.665
256 1 15.32 34.47 59.376
257 1 15.32 38.3 11.133
258 1 15.32 38.3 14.844
259 1 15.32 38.3 18.555
260 1 15.32 38.3 22.266
261 1 15.32 38.3 25.977
262 1 15.32 38.3 29.688
263 1 15.32 38.3 33.399
264 1 15.32 38.3 37.11
265 1 15.32 38.3 40.821
266 1 15.32 38.3 44.532
267 1 15.32 38.3 48.242999999999995
268 1 15.32 38.3 51.954
269 1 15.32 38.3 55.665
270 1 15.32 38.3 59.376
271 1 15.32 42.13 14.844
272 1 15.32 42.13 18.555
273 1 15.32 42.13 22.266
274 1 15.32 42.13 25.977
275 1 15.32 42.13 29.688
276 1 15.32 42.13 33.399
277 1 15.32 42.13 37.11
278 1 15.32 42.13 40.821
279 1 15.32 42.13 44.532
280 1 15.32 42.13 48.242999999999995
281 1 15.32 42.13 51.954
282 1 15.32 42.13 55.665
283 1 15.32 45.96 18.555
284 1 15.32 45.96 22.266
285 1 15.32 45.96 25.977
286 1 15.32 45.96 29.688
287 1 15.32 45.96 33.399
288 1 15.32 45.96 37.11
289 1 15.32 45.96 40.821
290 1 15.32 45.96 44.532
291 1 15.32 45.96 48.242999999999995
292 1 15.32 45.96 51.954
293 1 15.32 49.79 22.266
294 1 15.32 49.79 25.977
295 1 15.32 49.79 29.688
296 1 15.32 49.79 33.399
297 1 15.32 49.79 37.11
298 1 15.32 49.79 40.821
299 1 15.32 49.79 44.532
300 1 15.32 49.79 48.242999999999995
301 1 15.32 53.620000000000005 25.977
302 1 15.32 53.620000000000005 29.688
303 1 15.32 53.620000000000005 33.399
304 1 15.32 53.620000000000005 37.11
305 1 15.32 53.620000000000005 40.821
306 1 15.32 53.620000000000005 44.532
307 1 15.32 57.45 29.688
308 1 15.32 57.45 33.399
309 1 15.32 57.45 37.11
310 1 15.32 57.45 40.821
311 1 15.32 61.28 33.399
312 1 15.32 61.28 37.11
313 1 19.15 7.66 33.399
314 1 19.15 7.66 37.11
315 1 19.15 11.49 29.688
316 1 19.15 11.49 33.399
317 1 19.15 11.49 37.11
318 1 19.15 11.49 40.821
319 1 19.15 15.32 25.977
320 1 19.15 15.32 29.688
321 1 19.15 15.32 33.399
322 1 19.15 15.32 37.11
323 1 19.15 15.32 40.821
324 1 19.15 15.32 44.532
325 1 19.15 19.15 22.266
326 1 19.15 19.15 25.977
327 1 19.15 19.15 29.688
328 1 19.15 19.15 33.399
329 1 19.15 19.15 37.11
330 1 19.15 19.15 40.821
331 1 19.15 19.15 44.532
332 1 19.15 19.15 48.242999999999995
333 1 19.15 22.98 18.555
334 1 19.15 22.98 22.266
335 1 19.15 22.98 25.977
336 1 19.15 22.98 29.688
337 1 19.15 22.98 33.399
338 1 19.15 22.98 37.11
339 1 19.15 22.98 40.821
340 1 19.15 22.98 44.532
341 1 19.15 22.98 48.242999999999995
342 1 19.15 22.98 51.954
343 1 19.15 26.810000000000002 14.844
344 1 19.15 26.810000000000002 18.555
345 1 19.15 26.810000000000002 22.266
346 1 19.15 26.810000000000002 25.977
347 1 19.15 26.810000000000002 29.688
348 1 19.15 26.810000000000002 33.399
349 1 19.15 26.810000000000002 37.11
350 1 19.15 26.810000000000002 40.821
351 1 19.15 26.810000000000002 44.532
352 1 19.15 26.810000000000002 48.242999999999995
353 1 19.15 26.810000000000002 51.954
354 1 19.15 26.810000000000002 55.665
355 1 19.15 30.64 11.133
356 1 19.15 30.64 14.844
357 1 19.15 30.64 18.555
358 1 19.15 30.64 22.266
359 1 19.15 30.64 25.977
360 1 19.15 30.64 29.688
361 1 19.15 30.64 33.399
362 1 19.15 30.64 37.11
363 1 19.15 30.64 40.821
364 1 19.15 30.64 44.532
365 1 19.15 30.64 48.242999999999995
366 1 19.15 30.64 51.954
367 1 19.15 30.64 55.665
368 1 19.15 30.64 59.376
369 1 19.15 34.47 7.422
370 1 19.15 34.47 11.133
371 1 19.15 34.47 14.844
372 1 19.15 34.47 18.555
373 1 19.15 34.47 22.266
374 1 19.15 34.47 25.977
375 1 19.15 34.47 29.688
376 1 19.15 34.47 33.399
377 1 19.15 34.47 37.11
378 1 19.15 34.47 40.821
379 1 19.15 34.47 44.532
380 1 19.15 34.47 48.242999999999995
381 1 19.15 34.47 51.954
382 1 19.15 34.47 55.665
383 1 19.15 34.47 59.376
384 1 19.15 34.47 63.086999999999996
385 1 19.15 38.3 7.422
386 1 19.15 38.3 11.133
387 1 19.15 38.3 14.844
388 1 19.15 38.3 18.555
389 1 19.15 38.3 22.266
390 1 19.15 38.3 25.977
391 1 19.15 38.3 29.688
392 1 19.15 38.3 33.399
393 1 19.15 38.3 37.11
394 1 19.15 38.3 40.821
395 1 19.15 38.3 44.532
396 1 19.15 38.3 48.242999999999995
397 1 19.15 38.3 51.954
398 1 19.15 38.3 55.665
399 1 19.15 38.3 59.376
400 1 19.15 38.3 63.086999999999996
401 1 19.15 42.13 11.133
402 1 19.15 42.13 14.844
403 1 19.15 42.13 18.555
404 1 19.15 42.13 22.266
405 1 19.15 42.13 25.977
406 1 19.15 42.13 29.688
407 1 19.15 42.13 33.399
408 1 19.15 42.13 37.11
409 1 19.15 42.13 40.821
410 1 19.15 42.13 44.532
411 1 19.15 42.13 48.242999999999995
412 1 19.15 42.13 51.954
413 1 19.15 42.13 55.665
414 1 19.15 42.13 59.376
415 1 19.15 45.96 14.844
416 1 19.15 45.96 18.555
417 1 19.15 45.96 22.266
418 1 19.15 45.96 25.977
419 1 19.15 45.96 29.688
420 1 19.15 45.96 33.399
421 1 19.15 45.96 37.11
422 1 19.15 45.96 40.821
423 1 19.15 45.96 44.532
424 1 19.15 45.96 48.242999999999995
425 1 19.15 45.96 51.954
426 1 19.15 45.96 55.665
427 1 19.15 49.79 18.555
428 1 19.15 49.79 22.266
429 1 19.15 49.79 25.977
430 1 19.15 49.79 29.688
431 1 19.15 49.79 33.399
432 1 19.15 49.79 37.11
433 1 19.15 49.79 40.821
434 1 19.15 49.79 44.532
435 1 19.15 49.79 48.242999999999995
436 1 19.15 49.79 51.954
437 1 19.15 53.620000000000005 22.266
438 1 19.15 53.620000000000005 25.977
439 1 19.15 53.620000000000005 29.688
440 1 19.15 53.620000000000005 33.399
441 1 19.15 53.620000000000005 37.11
442 1 19.15 53.620000000000005 40.821
443 1 19.15 53.620000000000005 44.532
444 1 19.15 53.620000000000005 48.242999999999995
445 1 19.15 57.45 25.977
446 1 19.15 57.45 29.688
447 1 19.15 57.45 33.399
448 1 19.15 57.45 37.11
449 1 19.15 57.45 40.821
450 1 19.15 57.45 44.532
451 1 19.15 61.28 29.688
452 1 19.15 61.28 33.399
453 1 19.15 61.28 37.11
454 1 19.15 61.28 40.821
455 1 19.15 65.11 33.399
456 1 19.15 65.11 37.11
457 1 22.98 3.83 33.399
458 1 22.98 3.83 37.11
459 1 22.98 7.66 29.688
460 1 22.98 7.66 33.399
461 1 22.98 7.66 37.11
462 1 22.98 7.66 40.821
463 1 22.98 11.49 25.977
464 1 22.98 11.49 29.688
465 1 22.98 11.49 33.399
466 1 22.98 11.49 37.11
467 1 22.98 11.49 40.821
468 1 22.98 11.49 44.532
469 1 22.98 15.32 22.266
470 1 22.98 15.32 25.977
471 1 22.98 15.32 29.688
472 1 22.98 15.32 33.399
473 1 22.98 15.32 37.11
474 1 22.98 15.32 40.821
475 1 22.98 15.32 44.532
476 1 22.98 15.32 48.242999999999995
477 1 22.98 19.15 18.555
478 1 22.98 19.15 22.266
479 1 22.98 19.15 25.977
480 1 22.98 19.15 29.688
481 1 22.98 19.15 33.399
482 1 22.98 19.15 37.11
483 1 22.98 19.15 40.821
484 1 22.98 19.15 44.532
485 1 22.98 19.15 48.242999999999995
486 1 22.98 19.15 51.954
487 1 22.98 22.98 14.844
488 1 22.98 22.98 18.555
489 1 22.98 22.98 22.266
490 1 22.98 22.98 25.977
491 1 22.98 22.98 29.688
492 1 22.98 22.98 33.399
493 1 22.98 22.98 37.11
494 1 22.98 22.98 40.821
495 1 22.98 22.98 44.532
496 1 22.98 22.98 48.242999999999995
497 1 22.98 22.98 51.954
498 1 22.98 22.98 55.665
499 1 22.98 26.810000000000002 11.133
500 1 22.98 26.810000000000002 14.844
501 1 22.98 26.810000000000002 18.555
502 1 22.98 26.810000000000002 22.266
503 1 22.98 26.810000000000002 25.977
504 1 22.98 26.810000000000002 29.688
505 1 22.98 26.810000000000002 33.399
506 1 22.98 26.810000000000002 37.11
507 1 22.98 26.810000000000002 40.821
508 1 22.98 26.810000000000002 44.532
509 1 22.98 26.810000000000002 48.242999999999995
510 1 22.98 26.810000000000002 51.954
511 1 22.98 26.810000000000002 55.665
512 1 22.98 26.810000000000002 59.376
513 1 22.98 30.64 7.422
514 1 22.98 30.64 11.133
515 1 22.98 30.64 14.844
516 1 22.98 30.64 18.555
517 1 22.98 30.64 22.266
518 1 22.98 30.64 25.977
519 1 22.98 30.64 29.688
520 1 22.98 30.64 33.399
521 1 22.98 30.64 37.11
522 1 22.98 30.64 40.821
523 1 22.98 30.64 44.532
524 1 22.98 30.64 48.242999999999995
525 1 22.98 30.64 51.954
526 1 22.98 30.64 55.665
527 1 22.98 30.64 59.376
528 1 22.98 30.64 63.086999999999996
529 1 22.98 34.47 3.711
530 1 22.98 34.47 7.422
531 1 22.98 34.47 11.133
532 1 22.98 34.47 14.844
533 1 22.98 34.47 18.555
534 1 22.98 34.47 22.266
535 1 22.98 34.47 25.977
536 1 22.98 34.47 29.688
537 1 22.98 34.47 33.399
538 1 22.98 34.47 37.11
539 1 22.98 34.47 40.821
540 1 22.98 34.47 44.532
541 1 22.98 34.47 48.242999999999995
542 1 22.98 34.47 51.954
543 1 22.98 34.47 55.665
544 1 22.98 34.47 59.376
545 1 22.98 34.47 63.086999999999996
546 1 22.98 34.47 66.798
547 1 22.98 38.3 3.711
548 1 22.98 38.3 7.422
549 1 22.98 38.3 11.133
550 1 22.98 38.3 14.844
551 1 22.98 38.3 18.555
552 1 22.98 38.3 22.266
553 1 22.98 38.3 25.977
554 1 22.98 38.3 29.688
555 1 22.98 38.3 33.399
556 1 22.98 38.3 37.11
557 1 22.98 38.3 40.821
558 1 22.98 38.3 44.532
559 1 22.98 38.3 48.242999999999995
560 1 22.98 38.3 51.954
561 1 22.98 38.3 55.665
562 1 22.98 38.3 59.376
563 1 22.98 38.3 63.086999999999996
564 1 22.98 38.3 66.798
565 1 22.98 42.13 7.422
566 1 22.98 42.13 11.133
567 1 22.98 42.13 14.844
568 1 22.98 42.13 18.555
569 1 22.98 42.13 22.266
570 1 22.98 42.13 25.977
571 1 22.98 42.13 29.688
572 1 22.98 42.13 33.399
573 1 22.98 42.13 37.11
574 1 22.98 42.13 40.821
575 1 22.98 42.13 44.532
576 1 22.98 42.13 48.242999999999995
577 1 22.98 42.13 51.954
578 1 22.98 42.13 55.665
579 1 22.98 42.13 59.376
580 1 22.98 42.13 63.086999999999996
581 1 22.98 45.96 11.133
582 1 22.98 45.96 14.844
583 1 22.98 45.96 18.555
584 1 22.98 45.96 22.266
585 1 22.98 45.96 25.977
586 1 22.98 45.96 29.688
587 1 22.98 45.96 33.399
588 1 22.98 45.96 37.11
589 1 22.98 45.96 40.821
590 1 22.98 45.96 44.532
591 1 22.98 45.96 48.242999999999995
592 1 22.98 45.96 51.954
593 1 22.98 45.96 55.665
594 1 22.98 45.96 59.376
595 1 22.98 49.79 14.844
596 1 22.98 49.79 18.555
597 1 22.98 49.79 22.266
598 1 22.98 49.79 25.977
599 1 22.98 49.79 29.688
600 1 22.98 49.79 33.399
601 1 22.98 49.79 37.11
602 1 22.98 49.79 40.821
603 1 22.98 49.79 44.532
604 1 22.98 49.79 48.242999999999995
605 1 22.98 49.79 51.954
606 1 22.98 49.79 55.665
607 1 22.98 53.620000000000005 18.555
608 1 22.98 53.620000000000005 22.266
609 1 22.98 53.620000000000005 25.977
610 1 22.98 53.620000000000005 29.688
611 1 22.98 53.620000000000005 33.399
612 1 22.98 53.620000000000005 37.11
613 1 22.98 53.620000000000005 40.821
614 1 22.98 53.620000000000005 44.532
615 1 22.98 53.620000000000005 48.242999999999995
616 1 22.98 53.620000000000005 51.954
617 1 22.98 57.45 22.266
618 1 22.98 57.45 25.977
619 1 22.98 57.45 29.688
620 1 22.98 57.45 33.399
621 1 22.98 57.45 37.11
622 1 22.98 57.45 40.821
623 1 22.98 57.45 44.532
624 1 22.98 57.45 48.242999999999995
625 1 22.98 61.28 25.977
626 1 22.98 61.28 29.688
627 1 22.98 61.28 33.399
628 1 22.98 61.28 37.11
629 1 22.98 61.28 40.821
630 1 22.98 61.28 44.532
631 1 22.98 65.11 29.688
632 1 22.98 65.11 33.399
633 1 22.98 65.11 37.11
634 1 22.98 65.11 40.821
635 1 22.98 68.94 33.399
636 1 22.98 68.94 37.11
637 1 26.810000000000002 3.83 29.688
638 1 26.810000000000002 3.83 33.399
639 1 26.810000000000002 3.83 37.11
640 1 26.810000000000002 3.83 40.821
641 1 26.810000000000002 7.66 25.977
642 1 26.810000000000002 7.66 29.688
643 1 26.810000000000002 7.66 33.399
644 1 26.810000000000002 7.66 37.11
645 1 26.810000000000002 7.66 40.821
646 1 26.810000000000002 7.66 44.532
647 1 26.810000000000002 11.49 22.266
648 1 26.810000000000002 11.49 25.977
649 1 26.810000000000002 11.49 29.688
650 1 26.810000000000002 11.49 33.399
651 1 26.810000000000002 11.49 37.11
652 1 26.810000000000002 11.49 40.821
653 1 26.810000000000002 11.49 44.532
654 1 26.810000000000002 11.49 48.242999999999995
655 1 26.810000000000002 15.32 18.555
656 1 26.810000000000002 15.32 22.266
657 1 26.810000000000002 15.32 25.977
658 1 26.810000000000002 15.32 29.688
659 1 26.810000000000002 15.32 33.399
660 1 26.810000000000002 15.32 37.11
661 1 26.810000000000002 15.32 40.821
662 1 26.810000000000002 15.32 44.532
663 1 26.810000000000002 15.32 48.242999999999995
664 1 26.810000000000002 15.32 51.954
665 1 26.810000000000002 19.15 14.844
666 1 26.810000000000002 19.15 18.555
667 1 26.810000000000002 19.15 22.266
668 1 26.810000000000002 19.15 25.977
669 1 26.810000000000002 19.15 29.688
670 1 26.810000000000002 19.15 33.399
671 1 26.810000000000002 19.15 37.11
672 1 26.810000000000002 19.15 40.821
673 1 26.810000000000002 19.15 44.532
674 1 26.810000000000002 19.15 48.242999999999995
675 1 26.810000000000002 19.15 51.954
676 1 26.810000000000002 19.15 55.665
677 1 26.810000000000002 22.98 11.133
678 1 26.810000000000002 22.98 14.844
679 1 26.810000000000002 22.98 18.555
680 1 26.810000000000002 22.98 22.266
681 1 26.810000000000002 22.98 25.977
682 1 26.810000000000002 22.98 29.688
683 1 26.810000000000002 22.98 33.399
684 1 26.810000000000002 22.98 37.11
685 1 26.810000000000002 22.98 40.821
686 1 26.810000000000002 22.98 44.532
687 1 26.810000000000002 22.98 48.242999999999995
688 1 26.810000000000002 22.98 51.954
689 1 26.810000000000002 22.98 55.665
690 1 26.810000000000002 22.98 59.376
691 1 26.810000000000002 26.810000000000002 7.422
692 1 26.810000000000002 26.810000000000002 11.133
693 1 26.810000000000002 26.810000000000002 14.844
694 1 26.810000000000002 26.810000000000002 18.555
695 1 26.810000000000002 26.810000000000002 22.266
696 1 26.810000000000002 26.810000000000002 25.977
697 1 26.810000000000002 26.810000000000002 29.688
698 1 26.810000000000002 26.810000000000002 33.399
699 1 26.810000000000002 26.810000000000002 37.11
700 1 26.810000000000002 26.810000000000002 40.821
701 1 26.810000000000002 26.810000000000002 44.532
702 1 26.810000000000002 26.810000000000002 48.242999999999995
703 1 26.810000000000002 26.810000000000002 51.954
704 1 26.810000000000002 26.810000000000002 55.665
705 1 26.810000000000002 26.810000000000002 59.376
706 1 26.810000000000002 26.810000000000002 63.086999999999996
707 1 26.810000000000002 30.64 3.711
708 1 26.810000000000002 30.64 7.422
709 1 26.810000000000002 30.64 11.133
710 1 26.810000000000002 30.64 14.844
711 1 26.810000000000002 30.64 18.555
712 1 26.810000000000002 30.64 22.266
713 1 26.810000000000002 30.64 25.977
714 1 26.810000000000002 30.64 29.688
715 1 26.810000000000002 30.64 33.399
716 1 26.810000000000002 30.64 37.11
717 1 26.810000000000002 30.64 40.821
718 1 26.810000000000002 30.64 44.532
719 1 26.810000000000002 30.64 48.242999999999995
720 1 26.810000000000002 30.64 51.954
721 1 26.810000000000002 30.64 55.665
722 1 26.810000000000002 30.64 59.376
723 1 26.810000000000002 30.64 63.086999999999996
724 1 26.810000000000002 30.64 66.798
725 1 26.810000000000002 34.47 3.711
726 1 26.810000000000002 34.47 7.422
727 1 26.810000000000002 34.47 11.133
728 1 26.810000000000002 34.47 14.844
729 1 26.810000000000002 34.47 18.555
730 1 26.810000000000002 34.47 22.266
731 1 26.810000000000002 34.47 25.977
732 1 26.810000000000002 34.47 29.688
733 1 26.810000000000002 34.47 33.399
734 1 26.810000000000002 34.47 37.11
735 1 26.810000000000002 34.47 40.821
736 1 26.810000000000002 34.47 44.532
737 1 26.810000000000002 34.47 48.242999999999995
738 1 26.810000000000002 34.47 51.954
739 1 26.810000000000002 34.47 55.665
740 1 26.810000000000002 34.47 59.376
741 1 26.810000000000002 34.47 63.086999999999996
742 1 26.810000000000002 34.47 66.798
743 1 26.810000000000002 38.3 0.0
744 1 26.810000000000002 38.3 3.711
745 1 26.810000000000002 38.3 7.422
746 1 26.810000000000002 38.3 11.133
747 1 26.810000000000002 38.3 14.844
748 1 26.810000000000002 38.3 18.555
749 1 26.810000000000002 38.3 22.266
750 1 26.810000000000002 38.3 25.977
751 1 26.810000000000002 38.3 29.688
752 1 26.810000000000002 38.3 33.399
753 1 26.810000000000002 38.3 37.11
754 1 26.810000000000002 38.3 40.821
755 1 26.810000000000002 38.3 44.532
756 1 26.810000000000002 38.3 48.242999999999995
757 1 26.810000000000002 38.3 51.954
758 1 26.810000000000002 38.3 55.665
759 1 26.810000000000002 38.3 59.376
760 1 26.810000000000002 38.3 63.086999999999996
761 1 26.810000000000002 38.3 66.798
762 1 26.810000000000002 42.13 3.711
763 1 26.810000000000002 42.13 7.422
764 1 26.810000000000002 42.13 11.133
765 1 26.810000000000002 42.13 14.844
766 1 26.810000000000002 42.13 18.555
767 1 26.810000000000002 42.13 22.266
768 1 26.810000000000002 42.13 25.977
769 1 26.810000000000002 42.13 29.688
770 1 26.810000000000002 42.13 33.399
771 1 26.810000000000002 42.13 37.11
772 1 26.810000000000002 42.13 40.821
773 1 26.810000000000002 42.13 44.532
774 1 26.810000000000002 42.13 48.242999999999995
775 1 26.810000000000002 42.13 51.954
776 1 26.810000000000002 42.13 55.665
777 1 26.810000000000002 42.13 59.376
778 1 26.810000000000002 42.13 63.086999999999996
779 1 26.810000000000002 42.13 66.798
780 1 26.810000000000002 45.96 7.422
781 1 26.810000000000002 45.96 11.133
782 1 26.810000000000002 45.96 14.844
783 1 26.810000000000002 45.96 18.555
784 1 26.810000000000002 45.96 22.266
785 1 26.810000000000002 45.96 25.977
786 1 26.810000000000002 45.96 29.688
787 1 26.810000000000002 45.96 33.399
788 1 26.810000000000002 45.96 37.11
789 1 26.810000000000002 45.96 40.821
790 1 26.810000000000002 45.96 44.532
791 1 26.810000000000002 45.96 48.242999999999995
792 1 26.810000000000002 45.96 51.954
793 1 26.810000000000002 45.96 55.665
794 1 26.810000000000002 45.96 59.376
795 1 26.810000000000002 45.96 63.086999999999996
796 1 26.810000000000002 49.79 11.133
797 1 26.810000000000002 49.79 14.844
798 1 26.810000000000002 49.79 18.555
799 1 26.810000000000002 49.79 22.266
800 1 26.810000000000002 49.79 25.977
801 1 26.810000000000002 49.79 29.688
802 1 26.810000000000002 49.79 33.399
803 1 26.810000000000002 49.79 37.11
804 1 26.810000000000002 49.79 40.821
805 1 26.810000000000002 49.79 44.532
806 1 26.810000000000002 49.79 48.242999999999995
807 1 26.810000000000002 49.79 51.954
808 1 26.810000000000002 49.79 55.665
809 1 26.810000000000002 49.79 59.376
810 1 26.810000000000002 53.620000000000005 14.844
811 1 26.810000000000002 53.620000000000005 18.555
812 1 26.810000000000002 53.620000000000005 22.266
813 1 26.810000000000002 53.620000000000005 25.977
814 1 26.810000000000002 53.620000000000005 29.688
815 1 26.810000000000002 53.620000000000005 33.399
816 1 26.810000000000002 53.620000000000005 37.11
817 1 26.810000000000002 53.620000000000005 40.821
818 1 26.810000000000002 53.620000000000005 44.532
819 1 26.810000000000002 53.620000000000005 48.242999999999995
820 1 26.810000000000002 53.620000000000005 51.954
821 1 26.810000000000002 53.620000000000005 55.665
822 1 26.810000000000002 57.45 18.555
823 1 26.810000000000002 57.45 22.266
824 1 26.810000000000002 57.45 25.977
825 1 26.810000000000002 57.45 29.688
826 1 26.810000000000002 57.45 33.399
827 1 26.810000000000002 57.45 37.11
828 1 26.810000000000002 57.45 40.821
829 1 26.810000000000002 57.45 44.532
830 1 26.810000000000002 57.45 48.242999999999995
831 1 26.810000000000002 57.45 51.954
832 1 26.810000000000002 61.28 22.266
833 1 26.810000000000002 61.28 25.977
834 1 26.810000000000002 61.28 29.688
835 1 26.810000000000002 61.28 33.399
836 1 26.810000000000002 61.28 37.11
837 1 26.810000000000002 61.28 40.821
838 1 26.810000000000002 61.28 44.532
839 1 26.810000000000002 61.28 48.242999999999995
840 1 26.810000000000002 65.11 25.977
841 1 26.810000000000002 65.11 29.688
842 1 26.810000000000002 65.11 33.399
843 1 26.810000000000002 65.11 37.11
844 1 26.810000000000002 65.11 40.821
845 1 26.810000000000002 65.11 44.532
846 1 26.810000000000002 68.94 29.688
847 1 26.810000000000002 68.94 33.399
848 1 26.810000000000002 68.94 37.11
849 1 26.810000000000002 68.94 40.821
850 1 30.64 0.0 29.688
851 1 30.64 0.0 33.399
852 1 30.64 0.0 37.11
853 1 30.64 0.0 40.821
854 1 30.64 3.83 25.977
855 1 30.64 3.83 29.688
856 1 30.64 3.83 33.399
857 1 30.64 3.83 37.11
858 1 30.64 3.83 40.821
859 1 30.64 3.83 44.532
860 1 30.64 7.66 22.266
861 1 30.64 7.66 25.977
862 1 30.64 7.66 29.688
863 1 30.64 7.66 33.399
864 1 30.64 7.66 37.11
865 1 30.64 7.66 40.821
866 1 30.64 7.66 44.532
867 1 30.64 7.66 48.242999999999995
868 1 30.64 11.49 18.555
869 1 30.64 11.49 22.266
870 1 30.64 11.49 25.977
871 1 30.64 11.49 29.688
872 1 30.64 11.49 33.399
873 1 30.64 11.49 37.11
874 1 30.64 11.49 40.821
875 1 30.64 11.49 44.532
876 1 30.64 11.49 48.242999999999995
877 1 30.64 11.49 51.954
878 1 30.64 15.32 14.844
879 1 30.64 15.32 18.555
880 1 30.64 15.32 22.266
881 1 30.64 15.32 25.977
882 1 30.64 15.32 29.688
883 1 30.64 15.32 33.399
884 1 30.64 15.32 37.11
885 1 30.64 15.32 40.821
886 1 30.64 15.32 44.532
887 1 30.64 15.32 48.242999999999995
888 1 30.64 15.32 51.954
889 1 30.64 15.32 55.665
890 1 30.64 19.15 11.133
891 1 30.64 19.15 14.844
892 1 30.64 19.15 18.555
893 1 30.64 19.15 22.266
894 1 30.64 19.15 25.977
895 1 30.64 19.15 29.688
896 1 30.64 19.15 33.399
897 1 30.64 19.15 37.11
898 1 30.64 19.15 40.821
899 1 30.64 19.15 44.532
900 1 30.64 19.15 48.242999999999995
901 1 30.64 19.15 51.954
902 1 30.64 19.15 55.665
903 1 30.64 19.15 59.376
904 1 30.64 22.98 7.422
905 1 30.64 22.98 11.133
906 1 30.64 22.98 14.844
907 1 30.64 22.98 18.555
908 1 30.64 22.98 22.266
909 1 30.64 22.98 25.977
910 1 30.64 22.98 29.688
911 1 30.64 22.98 33.399
912 1 30.64 22.98 37.11
913 1 30.64 22.98 40.821
914 1 30.64 22.98 44.532
915 1 30.64 22.98 48.242999999999995
916 1 30.64 22.98 51.954
917 1 30.64 22.98 55.665
918 1 30.64 22.98 59.376
919 1 30.64 22.98 63.086999999999996
920 1 30.64 26.810000000000002 3.711
921 1 30.64 26.810000000000002 7.422
922 1 30.64 26.810000000000002 11.133
923 1 30.64 26.810000000000002 14.844
924 1 30.64 26.810000000000002 18.555
925 1 30.64 26.810000000000002 22.266
926 1 30.64 26.810000000000002 25.977
927 1 30.64 26.810000000000002 29.688
928 1 30.64 26.810000000000002 33.399
929 1 30.64 26.810000000000002 37.11
930 1 30.64 26.810000000000002 40.821
931 1 30.64 26.810000000000002 44.532
932 1 30.64 26.810000000000002 48.242999999999995
933 1 30.64 26.810000000000002 51.954
934 1 30.64 26.810000000000002 55.665
935 1 30.64 26.810000000000002 59.376
936 1 30.64 26.810000000000002 63.086999999999996
937 1 30.64 26.810000000000002 66.798
938 1 30.64 30.64 0.0
939 1 30.64 30.64 3.711
940 1 30.64 30.64 7.422
941 1 30.64 30.64 11.133
942 1 30.64 30.64 14.844
943 1 30.64 30.64 18.555
944 1 30.64 30.64 22.266
945 1 30.64 30.64 25.977
946 1 30.64 30.64 29.688
947 1 30.64 30.64 33.399
948 1 30.64 30.64 37.11
949 1 30.64 30.64 40.821
950 1 30.64 30.64 44.532
951 1 30.64 30.64 48.242999999999995
952 1 30.64 30.64 51.954
953 1 30.64 30.64 55.665
954 1 30.64 30.64 59.376
955 1 30.64 30.64 63.086999999999996
956 1 30.64 30.64 66.798
957 1 30.64 34.47 0.0
958 1 30.64 34.47 3.711
959 1 30.64 34.47 7.422
960 1 30.64 34.47 11.133
961 1 30.64 34.47 14.844
962 1 30.64 34.47 18.555
963 1 30.64 34.47 22.266
964 1 30.64 34.47 25.977
965 1 30.64 34.47 29.688
966 1 30.64 34.47 33.399
967 1 30.64 34.47 37.11
968 1 30.64 34.47 40.821
969 1 30.64 34.47 44.532
970 1 30.64 34.47 48.242999999999995
971 1 30.64 34.47 51.954
972 1 30.64 34.47 55.665
973 1 30.64 34.47 59.376
974 1 30.64 34.47 63.086999999999996
975 1 30.64 34.47 66.798
976 1 30.64 38.3 0.0
977 1 30.64 38.3 3.711
978 1 30.64 38.3 7.422
979 1 30.64 38.3 11.133
980 1 30.64 38.3 14.844
981 1 30.64 38.3 18.555
982 1 30.64 38.3 22.266
983 1 30.64 38.3 25.977
984 1 30.64 38.3 29.688
985 1 30.64 38.3 33.399
986 1 30.64 38.3 37.11
987 1 30.64 38.3 40.821
988 1 30.64 38.3 44.532
989 1 30.64 38.3 48.242999999999995
990 1 30.64 38.3 51.954
991 1 30.64 38.3 55.665
992 1 30.64 38.3 59.376
993 1 30.64 38.3 63.086999999999996
994 1 30.64 38.3 66.798
995 1 30.64 42.13 0.0
996 1 30.64 42.13 3.711
997 1 30.64 42.13 7.422
998 1 30.64 42.13 11.133