Cuboid_3000_atoms

3000 atoms
2 atom types
-10.0 46.385 xlo xhi
-10.0 46.385 ylo yhi
-10.0 45.2545 zlo zhi
0 0 0 xy xz yz

Atoms

1 1 0.0 15.32 14.844
2 1 0.0 15.32 18.555
3 1 0.0 19.15 14.844
4 1 0.0 19.15 18.555
5 1 0.0 19.15 22.266
6 1 0.0 22.98 18.555
7 1 3.83 3.83 3.711
8 1 3.83 3.83 7.422
9 1 3.83 3.83 11.133
10 1 3.83 3.83 14.844
11 1 3.83 3.83 18.555
12 1 3.83 3.83 22.266
13 1 3.83 3.83 25.977
14 1 3.83 3.83 29.688
15 1 3.83 3.83 33.399
16 1 3.83 7.66 3.711
17 1 3.83 7.66 7.422
18 1 3.83 7.66 11.133
19 1 3.83 7.66 14.844
20 1 3.83 7.66 18.555
21 1 3.83 7.66 22.266
22 1 3.83 7.66 25.977
23 1 3.83 7.66 29.688
24 1 3.83 7.66 33.399
25 1 3.83 11.49 3.711
26 1 3.83 11.49 7.422
27 1 3.83 11.49 11.133
28 1 3.83 11.49 14.844
29 1 3.83 11.49 18.555
30 1 3.83 11.49 22.266
31 1 3.83 11.49 25.977
32 1 3.83 11.49 29.688
33 1 3.83 11.49 33.399
34 1 3.83 15.32 3.711
35 1 3.83 15.32 7.422
36 1 3.83 15.32 11.133
37 1 3.83 15.32 14.844
38 1 3.83 15.32 18.555
39 1 3.83 15.32 22.266
40 1 3.83 15.32 25.977
41 1 3.83 15.32 29.688
42 1 3.83 15.32 33.399
43 1 3.83 19.15 3.711
44 1 3.83 19.15 7.422
45 1 3.83 19.15 11.133
46 1 3.83 19.15 14.844
47 1 3.83 19.15 18.555
48 1 3.83 19.15 22.266
49 1 3.83 19.15 25.977
50 1 3.83 19.15 29.688
51 1 3.83 19.15 33.399
52 1 3.83 22.98 3.711
53 1 3.83 22.98 7.422
54 1 3.83 22.98 11.133
55 1 3.83 22.98 14.844
56 1 3.83 22.98 18.555
57 1 3.83 22.98 22.266
58 1 3.83 22.98 25.977
59 1 3.83 22.98 29.688
60 1 3.83 22.98 33.399
61 1 3.83 26.810000000000002 3.711
62 1 3.83 26.810000000000002 7.422
63 1 3.83 26.810000000000002 11.133
64 1 3.83 26.810000000000002 14.844
65 1 3.83 26.810000000000002 18.555
66 1 3.83 26.810000000000002 22.266
67 1 3.83 26.810000000000002 25.977
68 1 3.83 26.810000000000002 29.688
69 1 3.83 26.810000000000002 33.399
70 1 3.83 30.64 3.711
71 1 3.83 30.64 7.422
72 1 3.83 30.64 11.133
73 1 3.83 30.64 14.844
74 1 3.83 30.64 18.555
75 1 3.83 30.64 22.266
76 1 3.83 30.64 25.977
77 1 3.83 30.64 29.688
78 1 3.83 30.64 33.399
79 1 3.83 34.47 3.711
80 1 3.83 34.47 7.422
81 1 3.83 34.47 11.133
82 1 3.83 34.47 14.844
83 1 3.83 34.47 18.555
84 1 3.83 34.47 22.266
85 1 3.83 34.47 25.977
86 1 3.83 34.47 29.688
87 1 3.83 34.47 33.399
88 1 7.66 3.83 3.711
89 1 7.66 3.83 7.422
90 1 7.66 3.83 11.133
91 1 7.66 3.83 14.844
92 1 7.66 3.83 18.555
93 1 7.66 3.83 22.266
94 1 7.66 3.83 25.977
95 1 7.66 3.83 29.688
96 1 7.66 3.83 33.399
97 1 7.66 7.66 3.711
98 1 7.66 7.66 7.422
99 1 7.66 7.66 11.133
100 1 7.66 7.66 14.844
101 1 7.66 7.66 18.555
102 1 7.66 7.66 22.266
103 1 7.66 7.66 25.977
104 1 7.66 7.66 29.688
105 1 7.66 7.66 33.399
106 1 7.66 11.49 3.711
107 1 7.66 11.49 7.422
108 1 7.66 11.49 11.133
109 1 7.66 11.49 14.844
110 1 7.66 11.49 18.555
111 1 7.66 11.49 22.266
112 1 7.66 11.49 25.977
113 1 7.66 11.49 29.688
114 1 7.66 11.49 33.399
115 1 7.66 15.32 3.711
116 1 7.66 15.32 7.422
117 1 7.66 15.32 11.133
118 1 7.66 15.32 14.844
119 1 7.66 15.32 18.555
120 1 7.66 15.32 22.266
121 1 7.66 15.32 25.977
122 1 7.66 15.32 29.688
123 1 7.66 15.32 33.399
124 1 7.66 19.15 3.711
125 1 7.66 19.15 7.422
126 1 7.66 19.15 11.133
127 1 7.66 19.15 14.844
128 1 7.66 19.15 18.555
129 1 7.66 19.15 22.266
130 1 7.66 19.15 25.977
131 1 7.66 19.15 29.688
132 1 7.66 19.15 33.399
133 1 7.66 22.98 3.711
134 1 7.66 22.98 7.422
135 1 7.66 22.98 11.133
136 1 7.66 22.98 14.844
137 1 7.66 22.98 18.555
138 1 7.66 22.98 22.266
139 1 7.66 22.98 25.977
140 1 7.66 22.98 29.688
141 1 7.66 22.98 33.399
142 1 7.66 26.810000000000002 3.711
143 1 7.66 26.810000000000002 7.422
144 1 7.66 26.810000000000002 11.133
145 1 7.66 26.810000000000002 14.844
146 1 7.66 26.810000000000002 18.555
147 1 7.66 26.810000000000002 22.266
148 1 7.66 26.810000000000002 25.977
149 1 7.66 26.810000000000002 29.688
150 1 7.66 26.810000000000002 33.399
151 1 7.66 30.64 3.711
152 1 7.66 30.64 7.422
153 1 7.66 30.64 11.133
154 1 7.66 30.64 14.844
155 1 7.66 30.64 18.555
156 1 7.66 30.64 22.266
157 1 7.66 30.64 25.977
158 1 7.66 30.64 29.688
159 1 7.66 30.64 33.399
160 1 7.66 34.47 3.711
161 1 7.66 34.47 7.422
162 1 7.66 34.47 11.133
163 1 7.66 34.47 14.844
164 1 7.66 34.47 18.555
165 1 7.66 34.47 22.266
166 1 7.66 34.47 25.977
167 1 7.66 34.47 29.688
168 1 7.66 34.47 33.399
169 1 11.49 3.83 3.711
170 1 11.49 3.83 7.422
171 1 11.49 3.83 11.133
172 1 11.49 3.83 14.844
173 1 11.49 3.83 18.555
174 1 11.49 3.83 22.266
175 1 11.49 3.83 25.977
176 1 11.49 3.83 29.688
177 1 11.49 3.83 33.399
178 1 11.49 7.66 3.711
179 1 11.49 7.66 7.422
180 1 11.49 7.66 11.133
181 1 11.49 7.66 14.844
182 1 11.49 7.66 18.555
183 1 11.49 7.66 22.266
184 1 11.49 7.66 25.977
185 1 11.49 7.66 29.688
186 1 11.49 7.66 33.399
187 1 11.49 11.49 3.711
188 1 11.49 11.49 7.422
189 1 11.49 11.49 11.133
190 1 11.49 11.49 14.844
191 1 11.49 11.49 18.555
192 1 11.49 11.49 22.266
193 1 11.49 11.49 25.977
194 1 11.49 11.49 29.688
195 1 11.49 11.49 33.399
196 1 11.49 15.32 3.711
197 1 11.49 15.32 7.422
198 1 11.49 15.32 11.133
199 1 11.49 15.32 14.844
200 1 11.49 15.32 18.555
201 1 11.49 15.32 22.266
202 1 11.49 15.32 25.977
203 1 11.49 15.32 29.688
204 1 11.49 15.32 33.399
205 1 11.49 19.15 3.711
206 1 11.49 19.15 7.422
207 1 11.49 19.15 11.133
208 1 11.49 19.15 14.844
209 1 11.49 19.15 18.555
210 1 11.49 19.15 22.266
211 1 11.49 19.15 25.977
212 1 11.49 19.15 29.688
213 1 11.49 19.15 33.399
214 1 11.49 22.98 3.711
215 1 11.49 22.98 7.422
216 1 11.49 22.98 11.133
217 1 11.49 22.98 14.844
218 1 11.49 22.98 18.555
219 1 11.49 22.98 22.266
220 1 11.49 22.98 25.977
221 1 11.49 22.98 29.688
222 1 11.49 22.98 33.399
223 1 11.49 26.810000000000002 3.711
224 1 11.49 26.810000000000002 7.422
225 1 11.49 26.810000000000002 11.133
226 1 11.49 26.810000000000002 14.844
227 1 11.49 26.810000000000002 18.555
228 1 11.49 26.810000000000002 22.266
229 1 11.49 26.810000000000002 25.977
230 1 11.49 26.810000000000002 29.688
231 1 11.49 26.810000000000002 33.399
232 1 11.49 30.64 3.711
233 1 11.49 30.64 7.422
234 1 11.49 30.64 11.133
235 1 11.49 30.64 14.844
236 1 11.49 30.64 18.555
237 1 11.49 30.64 22.266
238 1 11.49 30.64 25.977
239 1 11.49 30.64 29.688
240 1 11.49 30.64 33.399
241 1 11.49 34.47 3.711
242 1 11.49 34.47 7.422
243 1 11.49 34.47 11.133
244 1 11.49 34.47 14.844
245 1 11.49 34.47 18.555
246 1 11.49 34.47 22.266
247 1 11.49 34.47 25.977
248 1 11.49 34.47 29.688
249 1 11.49 34.47 33.399
250 1 15.32 0.0 14.844
251 1 15.32 0.0 18.555
252 1 15.32 3.83 3.711
253 1 15.32 3.83 7.422
254 1 15.32 3.83 11.133
255 1 15.32 3.83 14.844
256 1 15.32 3.83 18.555
257 1 15.32 3.83 22.266
258 1 15.32 3.83 25.977
259 1 15.32 3.83 29.688
260 1 15.32 3.83 33.399
261 1 15.32 7.66 3.711
262 1 15.32 7.66 7.422
263 1 15.32 7.66 11.133
264 1 15.32 7.66 14.844
265 1 15.32 7.66 18.555
266 1 15.32 7.66 22.266
267 1 15.32 7.66 25.977
268 1 15.32 7.66 29.688
269 1 15.32 7.66 33.399
270 1 15.32 11.49 3.711
271 1 15.32 11.49 7.422
272 1 15.32 11.49 11.133
273 1 15.32 11.49 14.844
274 1 15.32 11.49 18.555
275 1 15.32 11.49 22.266
276 1 15.32 11.49 25.977
277 1 15.32 11.49 29.688
278 1 15.32 11.49 33.399
279 1 15.32 15.32 0.0
280 1 15.32 15.32 3.711
281 1 15.32 15.32 7.422
282 1 15.32 15.32 11.133
283 1 15.32 15.32 14.844
284 1 15.32 15.32 18.555
285 1 15.32 15.32 22.266
286 1 15.32 15.32 25.977
287 1 15.32 15.32 29.688
288 1 15.32 15.32 33.399
289 1 15.32 19.15 0.0
290 1 15.32 19.15 3.711
291 1 15.32 19.15 7.422
292 1 15.32 19.15 11.133
293 1 15.32 19.15 14.844
294 1 15.32 19.15 18.555
295 1 15.32 19.15 22.266
296 1 15.32 19.15 25.977
297 1 15.32 19.15 29.688
298 1 15.32 19.15 33.399
299 1 15.32 22.98 3.711
300 1 15.32 22.98 7.422
301 1 15.32 22.98 11.133
302 1 15.32 22.98 14.844
303 1 15.32 22.98 18.555
304 1 15.32 22.98 22.266
305 1 15.32 22.98 25.977
306 1 15.32 22.98 29.688
307 1 15.32 22.98 33.399
308 1 15.32 26.810000000000002 3.711
309 1 15.32 26.810000000000002 7.422
310 1 15.32 26.810000000000002 11.133
311 1 15.32 26.810000000000002 14.844
312 1 15.32 26.810000000000002 18.555
313 1 15.32 26.810000000000002 22.266
314 1 15.32 26.810000000000002 25.977
315 1 15.32 26.810000000000002 29.688
316 1 15.32 26.810000000000002 33.399
317 1 15.32 30.64 3.711
318 1 15.32 30.64 7.422
319 1 15.32 30.64 11.133
320 1 15.32 30.64 14.844
321 1 15.32 30.64 18.555
322 1 15.32 30.64 22.266
323 1 15.32 30.64 25.977
324 1 15.32 30.64 29.688
325 1 15.32 30.64 33.399
326 1 15.32 34.47 3.711
327 1 15.32 34.47 7.422
328 1 15.32 34.47 11.133
329 1 15.32 34.47 14.844
330 1 15.32 34.47 18.555
331 1 15.32 34.47 22.266
332 1 15.32 34.47 25.977
333 1 15.32 34.47 29.688
334 1 15.32 34.47 33.399
335 1 19.15 0.0 14.844
336 1 19.15 0.0 18.555
337 1 19.15 0.0 22.266
338 1 19.15 3.83 3.711
339 1 19.15 3.83 7.422
340 1 19.15 3.83 11.133
341 1 19.15 3.83 14.844
342 1 19.15 3.83 18.555
343 1 19.15 3.83 22.266
344 1 19.15 3.83 25.977
345 1 19.15 3.83 29.688
346 1 19.15 3.83 33.399
347 1 19.15 7.66 3.711
348 1 19.15 7.66 7.422
349 1 19.15 7.66 11.133
350 1 19.15 7.66 14.844
351 1 19.15 7.66 18.555
352 1 19.15 7.66 22.266
353 1 19.15 7.66 25.977
354 1 19.15 7.66 29.688
355 1 19.15 7.66 33.399
356 1 19.15 11.49 3.711
357 1 19.15 11.49 7.422
358 1 19.15 11.49 11.133
359 1 19.15 11.49 14.844
360 1 19.15 11.49 18.555
361 1 19.15 11.49 22.266
362 1 19.15 11.49 25.977
363 1 19.15 11.49 29.688
364 1 19.15 11.49 33.399
365 1 19.15 15.32 0.0
366 1 19.15 15.32 3.711
367 1 19.15 15.32 7.422
368 1 19.15 15.32 11.133
369 1 19.15 15.32 14.844
370 1 19.15 15.32 18.555
371 1 19.15 15.32 22.266
372 1 19.15 15.32 25.977
373 1 19.15 15.32 29.688
374 1 19.15 15.32 33.399
375 1 19.15 19.15 0.0
376 1 19.15 19.15 3.711
377 1 19.15 19.15 7.422
378 1 19.15 19.15 11.133
379 1 19.15 19.15 14.844
380 1 19.15 19.15 18.555
381 1 19.15 19.15 22.266
382 1 19.15 19.15 25.977
383 1 19.15 19.15 29.688
384 1 19.15 19.15 33.399
385 1 19.15 22.98 0.0
386 1 19.15 22.98 3.711
387 1 19.15 22.98 7.422
388 1 19.15 22.98 11.133
389 1 19.15 22.98 14.844
390 1 19.15 22.98 18.555
391 1 19.15 22.98 22.266
392 1 19.15 22.98 25.977
393 1 19.15 22.98 29.688
394 1 19.15 22.98 33.399
395 1 19.15 26.810000000000002 3.711
396 1 19.15 26.810000000000002 7.422
397 1 19.15 26.810000000000002 11.133
398 1 19.15 26.810000000000002 14.844
399 1 19.15 26.810000000000002 18.555
400 1 19.15 26.810000000000002 22.266
401 1 19.15 26.810000000000002 25.977
402 1 19.15 26.810000000000002 29.688
403 1 19.15 26.810000000000002 33.399
404 1 19.15 30.64 3.711
405 1 19.15 30.64 7.422
406 1 19.15 30.64 11.133
407 1 19.15 30.64 14.844
408 1 19.15 30.64 18.555
409 1 19.15 30.64 22.266
410 1 19.15 30.64 25.977
411 1 19.15 30.64 29.688
412 1 19.15 30.64 33.399
413 1 19.15 34.47 3.711
414 1 19.15 34.47 7.422
415 1 19.15 34.47 11.133
416 1 19.15 34.47 14.844
417 1 19.15 34.47 18.555
418 1 19.15 34.47 22.266
419 1 19.15 34.47 25.977
420 1 19.15 34.47 29.688
421 1 19.15 34.47 33.399
422 1 22.98 0.0 18.555
423 1 22.98 3.83 3.711
424 1 22.98 3.83 7.422
425 1 22.98 3.83 11.133
426 1 22.98 3.83 14.844
427 1 22.98 3.83 18.555
428 1 22.98 3.83 22.266
429 1 22.98 3.83 25.977
430 1 22.98 3.83 29.688
431 1 22.98 3.83 33.399
432 1 22.98 7.66 3.711
433 1 22.98 7.66 7.422
434 1 22.98 7.66 11.133
435 1 22.98 7.66 14.844
436 1 22.98 7.66 18.555
437 1 22.98 7.66 22.266
438 1 22.98 7.66 25.977
439 1 22.98 7.66 29.688
440 1 22.98 7.66 33.399
441 1 22.98 11.49 3.711
442 1 22.98 11.49 7.422
443 1 22.98 11.49 11.133
444 1 22.98 11.49 14.844
445 1 22.98 11.49 18.555
446 1 22.98 11.49 22.266
447 1 22.98 11.49 25.977
448 1 22.98 11.49 29.688
449 1 22.98 11.49 33.399
450 1 22.98 15.32 3.711
451 1 22.98 15.32 7.422
452 1 22.98 15.32 11.133
453 1 22.98 15.32 14.844
454 1 22.98 15.32 18.555
455 1 22.98 15.32 22.266
456 1 22.98 15.32 25.977
457 1 22.98 15.32 29.688
458 1 22.98 15.32 33.399
459 1 22.98 19.15 0.0
460 1 22.98 19.15 3.711
461 1 22.98 19.15 7.422
462 1 22.98 19.15 11.133
463 1 22.98 19.15 14.844
464 1 22.98 19.15 18.555
465 1 22.98 19.15 22.266
466 1 22.98 19.15 25.977
467 1 22.98 19.15 29.688
468 1 22.98 19.15 33.399
469 1 22.98 22.98 3.711
470 1 22.98 22.98 7.422
471 1 22.98 22.98 11.133
472 1 22.98 22.98 14.844
473 1 22.98 22.98 18.555
474 1 22.98 22.98 22.266
475 1 22.98 22.98 25.977
476 1 22.98 22.98 29.688
477 1 22.98 22.98 33.399
478 1 22.98 26.810000000000002 3.711
479 1 22.98 26.810000000000002 7.422
480 1 22.98 26.810000000000002 11.133
481 1 22.98 26.810000000000002 14.844
482 1 22.98 26.810000000000002 18.555
483 1 22.98 26.810000000000002 22.266
484 1 22.98 26.810000000000002 25.977
485 1 22.98 26.810000000000002 29.688
486 1 22.98 26.810000000000002 33.399
487 1 22.98 30.64 3.711
488 1 22.98 30.64 7.422
489 1 22.98 30.64 11.133
490 1 22.98 30.64 14.844
491 1 22.98 30.64 18.555
492 1 22.98 30.64 22.266
493 1 22.98 30.64 25.977
494 1 22.98 30.64 29.688
495 1 22.98 30.64 33.399
496 1 22.98 34.47 3.711
497 1 22.98 34.47 7.422
498 1 22.98 34.47 11.133
499 1 22.98 34.47 14.844
500 1 22.98 34.47 18.555
501 1 22.98 34.47 22.266
502 1 22.98 34.47 25.977
503 1 22.98 34.47 29.688
504 1 22.98 34.47 33.399
505 1 26.810000000000002 3.83 3.711
506 1 26.810000000000002 3.83 7.422
507 1 26.810000000000002 3.83 11.133
508 1 26.810000000000002 3.83 14.844
509 1 26.810000000000002 3.83 18.555
510 1 26.810000000000002 3.83 22.266
511 1 26.810000000000002 3.83 25.977
512 1 26.810000000000002 3.83 29.688
513 1 26.810000000000002 3.83 33.399
514 1 26.810000000000002 7.66 3.711
515 1 26.810000000000002 7.66 7.422
516 1 26.810000000000002 7.66 11.133
517 1 26.810000000000002 7.66 14.844
518 1 26.810000000000002 7.66 18.555
519 1 26.810000000000002 7.66 22.266
520 1 26.810000000000002 7.66 25.977
521 1 26.810000000000002 7.66 29.688
522 1 26.810000000000002 7.66 33.399
523 1 26.810000000000002 11.49 3.711
524 1 26.810000000000002 11.49 7.422
525 1 26.810000000000002 11.49 11.133
526 1 26.810000000000002 11.49 14.844
527 1 26.810000000000002 11.49 18.555
528 1 26.810000000000002 11.49 22.266
529 1 26.810000000000002 11.49 25.977
530 1 26.810000000000002 11.49 29.688
531 1 26.810000000000002 11.49 33.399
532 1 26.810000000000002 15.32 3.711
533 1 26.810000000000002 15.32 7.422
534 1 26.810000000000002 15.32 11.133
535 1 26.810000000000002 15.32 14.844
536 1 26.810000000000002 15.32 18.555
537 1 26.810000000000002 15.32 22.266
538 1 26.810000000000002 15.32 25.977
539 1 26.810000000000002 15.32 29.688
540 1 26.810000000000002 15.32 33.399
541 1 26.810000000000002 19.15 3.711
542 1 26.810000000000002 19.15 7.422
543 1 26.810000000000002 19.15 11.133
544 1 26.810000000000002 19.15 14.844
545 1 26.810000000000002 19.15 18.555
546 1 26.810000000000002 19.15 22.266
547 1 26.810000000000002 19.15 25.977
548 1 26.810000000000002 19.15 29.688
549 1 26.810000000000002 19.15 33.399
550 1 26.810000000000002 22.98 3.711
551 1 26.810000000000002 22.98 7.422
552 1 26.810000000000002 22.98 11.133
553 1 26.810000000000002 22.98 14.844
554 1 26.810000000000002 22.98 18.555
555 1 26.810000000000002 22.98 22.266
556 1 26.810000000000002 22.98 25.977
557 1 26.810000000000002 22.98 29.688
558 1 26.810000000000002 22.98 33.399
559 1 26.810000000000002 26.810000000000002 3.711
560 1 26.810000000000002 26.810000000000002 7.422
561 1 26.810000000000002 26.810000000000002 11.133
562 1 26.810000000000002 26.810000000000002 14.844
563 1 26.810000000000002 26.810000000000002 18.555
564 1 26.810000000000002 26.810000000000002 22.266
565 1 26.810000000000002 26.810000000000002 25.977
566 1 26.810000000000002 26.810000000000002 29.688
567 1 26.810000000000002 26.810000000000002 33.399
568 1 26.810000000000002 30.64 3.711
569 1 26.810000000000002 30.64 7.422
570 1 26.810000000000002 30.64 11.133
571 1 26.810000000000002 30.64 14.844
572 1 26.810000000000002 30.64 18.555
573 1 26.810000000000002 30.64 22.266
574 1 26.810000000000002 30.64 25.977
575 1 26.810000000000002 30.64 29.688
576 1 26.810000000000002 30.64 33.399
577 1 26.810000000000002 34.47 3.711
578 1 26.810000000000002 34.47 7.422
579 1 26.810000000000002 34.47 11.133
580 1 26.810000000000002 34.47 14.844
581 1 26.810000000000002 34.47 18.555
582 1 26.810000000000002 34.47 22.266
583 1 26.810000000000002 34.47 25.977
584 1 26.810000000000002 34.47 29.688
585 1 26.810000000000002 34.47 33.399
586 1 30.64 3.83 3.711
587 1 30.64 3.83 7.422
588 1 30.64 3.83 11.133
589 1 30.64 3.83 14.844
590 1 30.64 3.83 18.555
591 1 30.64 3.83 22.266
592 1 30.64 3.83 25.977
593 1 30.64 3.83 29.688
594 1 30.64 3.83 33.399
595 1 30.64 7.66 3.711
596 1 30.64 7.66 7.422
597 1 30.64 7.66 11.133
598 1 30.64 7.66 14.844
599 1 30.64 7.66 18.555
600 1 30.64 7.66 22.266
601 1 30.64 7.66 25.977
602 1 30.64 7.66 29.688
603 1 30.64 7.66 33.399
604 1 30.64 11.49 3.711
605 1 30.64 11.49 7.422
606 1 30.64 11.49 11.133
607 1 30.64 11.49 14.844
608 1 30.64 11.49 18.555
609 1 30.64 11.49 22.266
610 1 30.64 11.49 25.977
611 1 30.64 11.49 29.688
612 1 30.64 11.49 33.399
613 1 30.64 15.32 3.711
614 1 30.64 15.32 7.422
615 1 30.64 15.32 11.133
616 1 30.64 15.32 14.844
617 1 30.64 15.32 18.555
618 1 30.64 15.32 22.266
619 1 30.64 15.32 25.977
620 1 30.64 15.32 29.688
621 1 30.64 15.32 33.399
622 1 30.64 19.15 3.711
623 1 30.64 19.15 7.422
624 1 30.64 19.15 11.133
625 1 30.64 19.15 14.844
626 1 30.64 19.15 18.555
627 1 30.64 19.15 22.266
628 1 30.64 19.15 25.977
629 1 30.64 19.15 29.688
630 1 30.64 19.15 33.399
631 1 30.64 22.98 3.711
632 1 30.64 22.98 7.422
633 1 30.64 22.98 11.133
634 1 30.64 22.98 14.844
635 1 30.64 22.98 18.555
636 1 30.64 22.98 22.266
637 1 30.64 22.98 25.977
638 1 30.64 22.98 29.688
639 1 30.64 22.98 33.399
640 1 30.64 26.810000000000002 3.711
641 1 30.64 26.810000000000002 7.422
642 1 30.64 26.810000000000002 11.133
643 1 30.64 26.810000000000002 14.844
644 1 30.64 26.810000000000002 18.555
645 1 30.64 26.810000000000002 22.266
646 1 30.64 26.810000000000002 25.977
647 1 30.64 26.810000000000002 29.688
648 1 30.64 26.810000000000002 33.399
649 1 30.64 30.64 3.711
650 1 30.64 30.64 7.422
651 1 30.64 30.64 11.133
652 1 30.64 30.64 14.844
653 1 30.64 30.64 18.555
654 1 30.64 30.64 22.266
655 1 30.64 30.64 25.977
656 1 30.64 30.64 29.688
657 1 30.64 30.64 33.399
658 1 30.64 34.47 3.711
659 1 30.64 34.47 7.422
660 1 30.64 34.47 11.133
661 1 30.64 34.47 14.844
662 1 30.64 34.47 18.555
663 1 30.64 34.47 22.266
664 1 30.64 34.47 25.977
665 1 30.64 34.47 29.688
666 1 30.64 34.47 33.399
667 1 34.47 3.83 3.711
668 1 34.47 3.83 7.422
669 1 34.47 3.83 11.133
670 1 34.47 3.83 14.844
671 1 34.47 3.83 18.555
672 1 34.47 3.83 22.266
673 1 34.47 3.83 25.977
674 1 34.47 3.83 29.688
675 1 34.47 3.83 33.399
676 1 34.47 7.66 3.711
677 1 34.47 7.66 7.422
678 1 34.47 7.66 11.133
679 1 34.47 7.66 14.844
680 1 34.47 7.66 18.555
681 1 34.47 7.66 22.266
682 1 34.47 7.66 25.977
683 1 34.47 7.66 29.688
684 1 34.47 7.66 33.399
685 1 34.47 11.49 3.711
686 1 34.47 11.49 7.422
687 1 34.47 11.49 11.133
688 1 34.47 11.49 14.844
689 1 34.47 11.49 18.555
690 1 34.47 11.49 22.266
691 1 34.47 11.49 25.977
692 1 34.47 11.49 29.688
693 1 34.47 11.49 33.399
694 1 34.47 15.32 3.711
695 1 34.47 15.32 7.422
696 1 34.47 15.32 11.133
697 1 34.47 15.32 14.844
698 1 34.47 15.32 18.555
699 1 34.47 15.32 22.266
700 1 34.47 15.32 25.977
701 1 34.47 15.32 29.688
702 1 34.47 15.32 33.399
703 1 34.47 19.15 3.711
704 1 34.47 19.15 7.422
705 1 34.47 19.15 11.133
706 1 34.47 19.15 14.844
707 1 34.47 19.15 18.555
708 1 34.47 19.15 22.266
709 1 34.47 19.15 25.977
710 1 34.47 19.15 29.688
711 1 34.47 19.15 33.399
712 1 34.47 22.98 3.711
713 1 34.47 22.98 7.422
714 1 34.47 22.98 11.133
715 1 34.47 22.98 14.844
716 1 34.47 22.98 18.555
717 1 34.47 22.98 22.266
718 1 34.47 22.98 25.977
719 1 34.47 22.98 29.688
720 1 34.47 22.98 33.399
721 1 34.47 26.810000000000002 3.711
722 1 34.47 26.810000000000002 7.422
723 1 34.47 26.810000000000002 11.133
724 1 34.47 26.810000000000002 14.844
725 1 34.47 26.810000000000002 18.555
726 1 34.47 26.810000000000002 22.266
727 1 34.47 26.810000000000002 25.977
728 1 34.47 26.810000000000002 29.688
729 1 34.47 26.810000000000002 33.399
730 1 34.47 30.64 3.711
731 1 34.47 30.64 7.422
732 1 34.47 30.64 11.133
733 1 34.47 30.64 14.844
734 1 34.47 30.64 18.555
735 1 34.47 30.64 22.266
736 1 34.47 30.64 25.977
737 1 34.47 30.64 29.688
738 1 34.47 30.64 33.399
739 1 34.47 34.47 3.711
740 1 34.47 34.47 7.422
741 1 34.47 34.47 11.133
742 1 34.47 34.47 14.844
743 1 34.47 34.47 18.555
744 1 34.47 34.47 22.266
745 1 34.47 34.47 25.977
746 1 34.47 34.47 29.688
747 1 34.47 34.47 33.399
748 1 1.915 1.915 3.711
749 1 1.915 1.915 7.422
750 1 1.915 1.915 11.133
751 1 1.915 1.915 14.844
752 1 1.915 1.915 18.555
753 1 1.915 1.915 22.266
754 1 1.915 1.915 25.977
755 1 1.915 1.915 29.688
756 1 1.915 1.915 33.399
757 1 1.915 5.745 3.711
758 1 1.915 5.745 7.422
759 1 1.915 5.745 11.133
760 1 1.915 5.745 14.844
761 1 1.915 5.745 18.555
762 1 1.915 5.745 22.266
763 1 1.915 5.745 25.977
764 1 1.915 5.745 29.688
765 1 1.915 5.745 33.399
766 1 1.915 9.575 3.711
767 1 1.915 9.575 7.422
768 1 1.915 9.575 11.133
769 1 1.915 9.575 14.844
770 1 1.915 9.575 18.555
771 1 1.915 9.575 22.266
772 1 1.915 9.575 25.977
773 1 1.915 9.575 29.688
774 1 1.915 9.575 33.399
775 1 1.915 13.405000000000001 3.711
776 1 1.915 13.405000000000001 7.422
777 1 1.915 13.405000000000001 11.133
778 1 1.915 13.405000000000001 14.844
779 1 1.915 13.405000000000001 18.555
780 1 1.915 13.405000000000001 22.266
781 1 1.915 13.405000000000001 25.977
782 1 1.915 13.405000000000001 29.688
783 1 1.915 13.405000000000001 33.399
784 1 1.915 17.235 3.711
785 1 1.915 17.235 7.422
786 1 1.915 17.235 11.133
787 1 1.915 17.235 14.844
788 1 1.915 17.235 18.555
789 1 1.915 17.235 22.266
790 1 1.915 17.235 25.977
791 1 1.915 17.235 29.688
792 1 1.915 17.235 33.399
793 1 1.915 21.065 3.711
794 1 1.915 21.065 7.422
795 1 1.915 21.065 11.133
796 1 1.915 21.065 14.844
797 1 1.915 21.065 18.555
798 1 1.915 21.065 22.266
799 1 1.915 21.065 25.977
800 1 1.915 21.065 29.688
801 1 1.915 21.065 33.399
802 1 1.915 24.895 3.711
803 1 1.915 24.895 7.422
804 1 1.915 24.895 11.133
805 1 1.915 24.895 14.844
806 1 1.915 24.895 18.555
807 1 1.915 24.895 22.266
808 1 1.915 24.895 25.977
809 1 1.915 24.895 29.688
810 1 1.915 24.895 33.399
811 1 1.915 28.725 3.711
812 1 1.915 28.725 7.422
813 1 1.915 28.725 11.133
814 1 1.915 28.725 14.844
815 1 1.915 28.725 18.555
816 1 1.915 28.725 22.266
817 1 1.915 28.725 25.977
818 1 1.915 28.725 29.688
819 1 1.915 28.725 33.399
820 1 1.915 32.555 3.711
821 1 1.915 32.555 7.422
822 1 1.915 32.555 11.133
823 1 1.915 32.555 14.844
824 1 1.915 32.555 18.555
825 1 1.915 32.555 22.266
826 1 1.915 32.555 25.977
827 1 1.915 32.555 29.688
828 1 1.915 32.555 33.399
829 1 5.745 1.915 3.711
830 1 5.745 1.915 7.422
831 1 5.745 1.915 11.133
832 1 5.745 1.915 14.844
833 1 5.745 1.915 18.555
834 1 5.745 1.915 22.266
835 1 5.745 1.915 25.977
836 1 5.745 1.915 29.688
837 1 5.745 1.915 33.399
838 1 5.745 5.745 3.711
839 1 5.745 5.745 7.422
840 1 5.745 5.745 11.133
841 1 5.745 5.745 14.844
842 1 5.745 5.745 18.555
843 1 5.745 5.745 22.266
844 1 5.745 5.745 25.977
845 1 5.745 5.745 29.688
846 1 5.745 5.745 33.399
847 1 5.745 9.575 3.711
848 1 5.745 9.575 7.422
849 1 5.745 9.575 11.133
850 1 5.745 9.575 14.844
851 1 5.745 9.575 18.555
852 1 5.745 9.575 22.266
853 1 5.745 9.575 25.977
854 1 5.745 9.575 29.688
855 1 5.745 9.575 33.399
856 1 5.745 13.405000000000001 3.711
857 1 5.745 13.405000000000001 7.422
858 1 5.745 13.405000000000001 11.133
859 1 5.745 13.405000000000001 14.844
860 1 5.745 13.405000000000001 18.555
861 1 5.745 13.405000000000001 22.266
862 1 5.745 13.405000000000001 25.977
863 1 5.745 13.405000000000001 29.688
864 1 5.745 13.405000000000001 33.399
865 1 5.745 17.235 3.711
866 1 5.745 17.235 7.422
867 1 5.745 17.235 11.133
868 1 5.745 17.235 14.844
869 1 5.745 17.235 18.555
870 1 5.745 17.235 22.266
871 1 5.745 17.235 25.977
872 1 5.745 17.235 29.688
873 1 5.745 17.235 33.399
874 1 5.745 21.065 3.711
875 1 5.745 21.065 7.422
876 1 5.745 21.065 11.133
877 1 5.745 21.065 14.844
878 1 5.745 21.065 18.555
879 1 5.745 21.065 22.266
880 1 5.745 21.065 25.977
881 1 5.745 21.065 29.688
882 1 5.745 21.065 33.399
883 1 5.745 24.895 3.711
884 1 5.745 24.895 7.422
885 1 5.745 24.895 11.133
886 1 5.745 24.895 14.844
887 1 5.745 24.895 18.555
888 1 5.745 24.895 22.266
889 1 5.745 24.895 25.977
890 1 5.745 24.895 29.688
891 1 5.745 24.895 33.399
892 1 5.745 28.725 3.711
893 1 5.745 28.725 7.422
894 1 5.745 28.725 11.133
895 1 5.745 28.725 14.844
896 1 5.745 28.725 18.555
897 1 5.745 28.725 22.266
898 1 5.745 28.725 25.977
899 1 5.745 28.725 29.688
900 1 5.745 28.725 33.399
901 1 5.745 32.555 3.711
902 1 5.745 32.555 7.422
903 1 5.745 32.555 11.133
904 1 5.745 32.555 14.844
905 1 5.745 32.555 18.555
906 1 5.745 32.555 22.266
907 1 5.745 32.555 25.977
908 1 5.745 32.555 29.688
909 1 5.745 32.555 33.399
910 1 9.575 1.915 3.711
911 1 9.575 1.915 7.422
912 1 9.575 1.915 11.133
913 1 9.575 1.915 14.844
914 1 9.575 1.915 18.555
915 1 9.575 1.915 22.266
916 1 9.575 1.915 25.977
917 1 9.575 1.915 29.688
918 1 9.575 1.915 33.399
919 1 9.575 5.745 3.711
920 1 9.575 5.745 7.422
921 1 9.575 5.745 11.133
922 1 9.575 5.745 14.844
923 1 9.575 5.745 18.555
924 1 9.575 5.745 22.266
925 1 9.575 5.745 25.977
926 1 9.575 5.745 29.688
927 1 9.575 5.745 33.399
928 1 9.575 9.575 3.711
929 1 9.575 9.575 7.422
930 1 9.575 9.575 11.133
931 1 9.575 9.575 14.844
932 1 9.575 9.575 18.555
933 1 9.575 9.575 22.266
934 1 9.575 9.575 25.977
935 1 9.575 9.575 29.688
936 1 9.575 9.575 33.399
937 1 9.575 13.405000000000001 3.711
938 1 9.575 13.405000000000001 7.422
939 1 9.575 13.405000000000001 11.133
940 1 9.575 13.405000000000001 14.844
941 1 9.575 13.405000000000001 18.555
942 1 9.575 13.405000000000001 22.266
943 1 9.575 13.405000000000001 25.977
944 1 9.575 13.405000000000001 29.688
945 1 9.575 13.405000000000001 33.399
946 1 9.575 17.235 3.711
947 1 9.575 17.235 7.422
948 1 9.575 17.235 11.133
949 1 9.575 17.235 14.844
950 1 9.575 17.235 18.555
951 1 9.575 17.235 22.266
952 1 9.575 17.235 25.977
953 1 9.575 17.235 29.688
954 1 9.575 17.235 33.399
955 1 9.575 21.065 3.711
956 1 9.575 21.065 7.422
957 1 9.575 21.065 11.133
958 1 9.575 21.065 14.844
959 1 9.575 21.065 18.555
960 1 9.575 21.065 22.266
961 1 9.575 21.065 25.977
962 1 9.575 21.065 29.688
963 1 9.575 21.065 33.399
964 1 9.575 24.895 3.711
965 1 9.575 24.895 7.422
966 1 9.575 24.895 11.133
967 1 9.575 24.895 14.844
968 1 9.575 24.895 18.555
969 1 9.575 24.895 22.266
970 1 9.575 24.895 25.977
971 1 9.575 24.895 29.688
972 1 9.575 24.895 33.399
973 1 9.575 28.725 3.711
974 1 9.575 28.725 7.422
975 1 9.575 28.725 11.133
976 1 9.575 28.725 14.844
977 1 9.575 28.725 18.555
978 1 9.575 28.725 22.266
979 1 9.575 28.725 25.977
980 1 9.575 28.725 29.688
981 1 9.575 28.725 33.399
982 1 9.575 32.555 3.711
983 1 9.575 32.555 7.422
984 1 9.575 32.555 11.133
985 1 9.575 32.555 14.844
986 1 9.575 32.555 18.555
987 1 9.575 32.555 22.266
988 1 9.575 32.555 25.977
989 1 9.575 32.555 29.688
990 1 9.575 32.555 33.399
991 1 13.405000000000001 1.915 3.711
992 1 13.405000000000001 1.915 7.422
993 1 13.405000000000001 1.915 11.133
994 1 13.405000000000001 1.915 14.844
995 1 13.405000000000001 1.915 18.555
996 1 13.405000000000001 1.915 22.266
997 1 13.405000000000001 1.915 25.977
998 1 13.405000000000001 1.915 29.688
999 1 13.405000000000001 1.915 33.399
1000 1 13.405000000000001 5.745 3.711
1001 1 13.405000000000001 5.745 7.422
1002 1 13.405000000000001 5.745 11.133
1003 1 13.405000000000001 5.745 14.844
1004 1 13.405000000000001 5.745 18.555
1005 1 13.405000000000001 5.745 22.266
1006 1 13.405000000000001 5.745 25.977
1007 1 13.405000000000001 5.745 29.688
1008 1 13.405000000000001 5.745 33.399
1009 1 13.405000000000001 9.575 3.711
1010 1 13.405000000000001 9.575 7.422
1011 1 13.405000000000001 9.575 11.133
1012 1 13.405000000000001 9.575 14.844
1013 1 13.405000000000001 9.575 18.555
1014 1 13.405000000000001 9.575 22.266
1015 1 13.405000000000001 9.575 25.977
1016 1 13.405000000000001 9.575 29.688
1017 1 13.405000000000001 9.575 33.399
1018 1 13.405000000000001 13.405000000000001 3.711
1019 1 13.405000000000001 13.405000000000001 7.422
1020 1 13.405000000000001 13.405000000000001 11.133
1021 1 13.405000000000001 13.405000000000001 14.844
1022 1 13.405000000000001 13.405000000000001 18.555
1023 1 13.405000000000001 13.405000000000001 22.266
1024 1 13.405000000000001 13.405000000000001 25.977
1025 1 13.405000000000001 13.405000000000001 29.688
1026 1 13.405000000000001 13.405000000000001 33.399
1027 1 13.405000000000001 17.235 0.0
1028 1 13.405000000000001 17.235 3.711
1029 1 13.405000000000001 17.235 7.422
1030 1 13.405000000000001 17.235 11.133
1031 1 13.405000000000001 17.235 14.844
1032 1 13.405000000000001 17.235 18.555
1033 1 13.405000000000001 17.235 22.266
1034 1 13.405000000000001 17.235 25.977
1035 1 13.405000000000001 17.235 29.688
1036 1 13.405000000000001 17.235 33.399
1037 1 13.405000000000001 21.065 0.0
1038 1 13.405000000000001 21.065 3.711
1039 1 13.405000000000001 21.065 7.422
1040 1 13.405000000000001 21.065 11.133
1041 1 13.405000000000001 21.065 14.844
1042 1 13.405000000000001 21.065 18.555
1043 1 13.405000000000001 21.065 22.266
1044 1 13.405000000000001 21.065 25.977
1045 1 13.405000000000001 21.065 29.688
1046 1 13.405000000000001 21.065 33.399
1047 1 13.405000000000001 24.895 3.711
1048 1 13.405000000000001 24.895 7.422
1049 1 13.405000000000001 24.895 11.133
1050 1 13.405000000000001 24.895 14.844
1051 1 13.405000000000001 24.895 18.555
1052 1 13.405000000000001 24.895 22.266
1053 1 13.405000000000001 24.895 25.977
1054 1 13.405000000000001 24.895 29.688
1055 1 13.405000000000001 24.895 33.399
1056 1 13.405000000000001 28.725 3.711
1057 1 13.405000000000001 28.725 7.422
1058 1 13.405000000000001 28.725 11.133
1059 1 13.405000000000001 28.725 14.844
1060 1 13.405000000000001 28.725 18.555
1061 1 13.405000000000001 28.725 22.266
1062 1 13.405000000000001 28.725 25.977
1063 1 13.405000000000001 28.725 29.688
1064 1 13.405000000000001 28.725 33.399
1065 1 13.405000000000001 32.555 3.711
1066 1 13.405000000000001 32.555 7.422
1067 1 13.405000000000001 32.555 11.133
1068 1 13.405000000000001 32.555 14.844
1069 1 13.405000000000001 32.555 18.555