test_interface/test_interface_cell_1

18720 atoms
2 atom types
0.024286809999999187 76.49019161 xlo xhi
0.09646145699999895 171.28336625699998 ylo yhi
0.0 18.0075 zlo zhi
0 0 0 xy xz yz

Atoms

1 1 1.0439416099999992 1.116116256999999 3.6015
2 1 1.0439416099999992 1.116116256999999 1.2005
3 1 1.0439416099999992 1.116116256999999 8.4035
4 1 1.0439416099999992 1.116116256999999 6.0025
5 1 1.0439416099999992 1.116116256999999 13.2055
6 1 1.0439416099999992 1.116116256999999 10.8045
7 1 1.0439416099999992 1.116116256999999 18.0075
8 1 1.0439416099999992 1.116116256999999 15.6065
9 1 1.9635964099999992 7.5743662569999985 2.401
10 1 0.12428680999999919 3.268866257 0.0
11 1 1.2402724099999993 3.268866257 2.401
12 1 0.8476108099999999 7.5743662569999985 0.0
13 1 1.0439416099999992 9.727116256999999 3.6015
14 1 1.0439416099999992 9.727116256999999 1.2005
15 1 1.0439416099999992 5.421616256999999 1.2005
16 1 1.0439416099999992 5.421616256999999 3.6015
17 1 1.9635964099999992 7.5743662569999985 7.203
18 1 0.12428680999999919 3.268866257 4.802
19 1 1.2402724099999993 3.268866257 7.203
20 1 0.8476108099999999 7.5743662569999985 4.802
21 1 1.0439416099999992 9.727116256999999 8.4035
22 1 1.0439416099999992 9.727116256999999 6.0025
23 1 1.0439416099999992 5.421616256999999 6.0025
24 1 1.0439416099999992 5.421616256999999 8.4035
25 1 1.9635964099999992 7.5743662569999985 12.005
26 1 0.12428680999999919 3.268866257 9.604
27 1 1.2402724099999993 3.268866257 12.005
28 1 0.8476108099999999 7.5743662569999985 9.604
29 1 1.0439416099999992 9.727116256999999 13.2055
30 1 1.0439416099999992 9.727116256999999 10.8045
31 1 1.0439416099999992 5.421616256999999 10.8045
32 1 1.0439416099999992 5.421616256999999 13.2055
33 1 1.9635964099999992 7.5743662569999985 16.807
34 1 0.12428680999999919 3.268866257 14.406
35 1 1.2402724099999993 3.268866257 16.807
36 1 0.8476108099999999 7.5743662569999985 14.406
37 1 1.0439416099999992 9.727116256999999 18.0075
38 1 1.0439416099999992 9.727116256999999 15.6065
39 1 1.0439416099999992 5.421616256999999 15.6065
40 1 1.0439416099999992 5.421616256999999 18.0075
41 1 1.9635964099999992 16.185366257 2.401
42 1 0.12428680999999919 11.879866257 0.0
43 1 1.2402724099999993 11.879866257 2.401
44 1 0.8476108099999999 16.185366257 0.0
45 1 1.0439416099999992 18.338116257 3.6015
46 1 1.0439416099999992 18.338116257 1.2005
47 1 1.0439416099999992 14.032616256999997 1.2005
48 1 1.0439416099999992 14.032616256999997 3.6015
49 1 1.9635964099999992 16.185366257 7.203
50 1 0.12428680999999919 11.879866257 4.802
51 1 1.2402724099999993 11.879866257 7.203
52 1 0.8476108099999999 16.185366257 4.802
53 1 1.0439416099999992 18.338116257 8.4035
54 1 1.0439416099999992 18.338116257 6.0025
55 1 1.0439416099999992 14.032616256999997 6.0025
56 1 1.0439416099999992 14.032616256999997 8.4035
57 1 1.9635964099999992 16.185366257 12.005
58 1 0.12428680999999919 11.879866257 9.604
59 1 1.2402724099999993 11.879866257 12.005
60 1 0.8476108099999999 16.185366257 9.604
61 1 1.0439416099999992 18.338116257 13.2055
62 1 1.0439416099999992 18.338116257 10.8045
63 1 1.0439416099999992 14.032616256999997 10.8045
64 1 1.0439416099999992 14.032616256999997 13.2055
65 1 1.9635964099999992 16.185366257 16.807
66 1 0.12428680999999919 11.879866257 14.406
67 1 1.2402724099999993 11.879866257 16.807
68 1 0.8476108099999999 16.185366257 14.406
69 1 1.0439416099999992 18.338116257 18.0075
70 1 1.0439416099999992 18.338116257 15.6065
71 1 1.0439416099999992 14.032616256999997 15.6065
72 1 1.0439416099999992 14.032616256999997 18.0075
73 1 1.9635964099999992 24.796366257 2.401
74 1 0.12428680999999919 20.490866256999997 0.0
75 1 1.2402724099999993 20.490866256999997 2.401
76 1 0.8476108099999999 24.796366257 0.0
77 1 1.0439416099999992 26.949116256999996 3.6015
78 1 1.0439416099999992 26.949116256999996 1.2005
79 1 1.0439416099999992 22.643616256999998 1.2005
80 1 1.0439416099999992 22.643616256999998 3.6015
81 1 1.9635964099999992 24.796366257 7.203
82 1 0.12428680999999919 20.490866256999997 4.802
83 1 1.2402724099999993 20.490866256999997 7.203
84 1 0.8476108099999999 24.796366257 4.802
85 1 1.0439416099999992 26.949116256999996 8.4035
86 1 1.0439416099999992 26.949116256999996 6.0025
87 1 1.0439416099999992 22.643616256999998 6.0025
88 1 1.0439416099999992 22.643616256999998 8.4035
89 1 1.9635964099999992 24.796366257 12.005
90 1 0.12428680999999919 20.490866256999997 9.604
91 1 1.2402724099999993 20.490866256999997 12.005
92 1 0.8476108099999999 24.796366257 9.604
93 1 1.0439416099999992 26.949116256999996 13.2055
94 1 1.0439416099999992 26.949116256999996 10.8045
95 1 1.0439416099999992 22.643616256999998 10.8045
96 1 1.0439416099999992 22.643616256999998 13.2055
97 1 1.9635964099999992 24.796366257 16.807
98 1 0.12428680999999919 20.490866256999997 14.406
99 1 1.2402724099999993 20.490866256999997 16.807
100 1 0.8476108099999999 24.796366257 14.406
101 1 1.0439416099999992 26.949116256999996 18.0075
102 1 1.0439416099999992 26.949116256999996 15.6065
103 1 1.0439416099999992 22.643616256999998 15.6065
104 1 1.0439416099999992 22.643616256999998 18.0075
105 1 1.9635964099999992 33.407366257 2.401
106 1 0.12428680999999919 29.101866257 0.0
107 1 1.2402724099999993 29.101866257 2.401
108 1 0.8476108099999999 33.407366257 0.0
109 1 1.0439416099999992 35.560116257000004 3.6015
110 1 1.0439416099999992 35.560116257000004 1.2005
111 1 1.0439416099999992 31.254616257 1.2005
112 1 1.0439416099999992 31.254616257 3.6015
113 1 1.9635964099999992 33.407366257 7.203
114 1 0.12428680999999919 29.101866257 4.802
115 1 1.2402724099999993 29.101866257 7.203
116 1 0.8476108099999999 33.407366257 4.802
117 1 1.0439416099999992 35.560116257000004 8.4035
118 1 1.0439416099999992 35.560116257000004 6.0025
119 1 1.0439416099999992 31.254616257 6.0025
120 1 1.0439416099999992 31.254616257 8.4035
121 1 1.9635964099999992 33.407366257 12.005
122 1 0.12428680999999919 29.101866257 9.604
123 1 1.2402724099999993 29.101866257 12.005
124 1 0.8476108099999999 33.407366257 9.604
125 1 1.0439416099999992 35.560116257000004 13.2055
126 1 1.0439416099999992 35.560116257000004 10.8045
127 1 1.0439416099999992 31.254616257 10.8045
128 1 1.0439416099999992 31.254616257 13.2055
129 1 1.9635964099999992 33.407366257 16.807
130 1 0.12428680999999919 29.101866257 14.406
131 1 1.2402724099999993 29.101866257 16.807
132 1 0.8476108099999999 33.407366257 14.406
133 1 1.0439416099999992 35.560116257000004 18.0075
134 1 1.0439416099999992 35.560116257000004 15.6065
135 1 1.0439416099999992 31.254616257 15.6065
136 1 1.0439416099999992 31.254616257 18.0075
137 1 1.9635964099999992 42.018366257000004 2.401
138 1 0.12428680999999919 37.712866257 0.0
139 1 1.2402724099999993 37.712866257 2.401
140 1 0.8476108099999999 42.018366257000004 0.0
141 1 1.0439416099999992 44.171116257 3.6015
142 1 1.0439416099999992 44.171116257 1.2005
143 1 1.0439416099999992 39.865616257 1.2005
144 1 1.0439416099999992 39.865616257 3.6015
145 1 1.9635964099999992 42.018366257000004 7.203
146 1 0.12428680999999919 37.712866257 4.802
147 1 1.2402724099999993 37.712866257 7.203
148 1 0.8476108099999999 42.018366257000004 4.802
149 1 1.0439416099999992 44.171116257 8.4035
150 1 1.0439416099999992 44.171116257 6.0025
151 1 1.0439416099999992 39.865616257 6.0025
152 1 1.0439416099999992 39.865616257 8.4035
153 1 1.9635964099999992 42.018366257000004 12.005
154 1 0.12428680999999919 37.712866257 9.604
155 1 1.2402724099999993 37.712866257 12.005
156 1 0.8476108099999999 42.018366257000004 9.604
157 1 1.0439416099999992 44.171116257 13.2055
158 1 1.0439416099999992 44.171116257 10.8045
159 1 1.0439416099999992 39.865616257 10.8045
160 1 1.0439416099999992 39.865616257 13.2055
161 1 1.9635964099999992 42.018366257000004 16.807
162 1 0.12428680999999919 37.712866257 14.406
163 1 1.2402724099999993 37.712866257 16.807
164 1 0.8476108099999999 42.018366257000004 14.406
165 1 1.0439416099999992 44.171116257 18.0075
166 1 1.0439416099999992 44.171116257 15.6065
167 1 1.0439416099999992 39.865616257 15.6065
168 1 1.0439416099999992 39.865616257 18.0075
169 1 1.9635964099999992 50.629366257 2.401
170 1 0.12428680999999919 46.323866257 0.0
171 1 1.2402724099999993 46.323866257 2.401
172 1 0.8476108099999999 50.629366257 0.0
173 1 1.0439416099999992 52.782116257000006 3.6015
174 1 1.0439416099999992 52.782116257000006 1.2005
175 1 1.0439416099999992 48.476616257 1.2005
176 1 1.0439416099999992 48.476616257 3.6015
177 1 1.9635964099999992 50.629366257 7.203
178 1 0.12428680999999919 46.323866257 4.802
179 1 1.2402724099999993 46.323866257 7.203
180 1 0.8476108099999999 50.629366257 4.802
181 1 1.0439416099999992 52.782116257000006 8.4035
182 1 1.0439416099999992 52.782116257000006 6.0025
183 1 1.0439416099999992 48.476616257 6.0025
184 1 1.0439416099999992 48.476616257 8.4035
185 1 1.9635964099999992 50.629366257 12.005
186 1 0.12428680999999919 46.323866257 9.604
187 1 1.2402724099999993 46.323866257 12.005
188 1 0.8476108099999999 50.629366257 9.604
189 1 1.0439416099999992 52.782116257000006 13.2055
190 1 1.0439416099999992 52.782116257000006 10.8045
191 1 1.0439416099999992 48.476616257 10.8045
192 1 1.0439416099999992 48.476616257 13.2055
193 1 1.9635964099999992 50.629366257 16.807
194 1 0.12428680999999919 46.323866257 14.406
195 1 1.2402724099999993 46.323866257 16.807
196 1 0.8476108099999999 50.629366257 14.406
197 1 1.0439416099999992 52.782116257000006 18.0075
198 1 1.0439416099999992 52.782116257000006 15.6065
199 1 1.0439416099999992 48.476616257 15.6065
200 1 1.0439416099999992 48.476616257 18.0075
201 1 1.9635964099999992 59.240366257 2.401
202 1 0.12428680999999919 54.934866257 0.0
203 1 1.2402724099999993 54.934866257 2.401
204 1 0.8476108099999999 59.240366257 0.0
205 1 1.0439416099999992 61.393116256999996 3.6015
206 1 1.0439416099999992 61.393116256999996 1.2005
207 1 1.0439416099999992 57.087616257 1.2005
208 1 1.0439416099999992 57.087616257 3.6015
209 1 1.9635964099999992 59.240366257 7.203
210 1 0.12428680999999919 54.934866257 4.802
211 1 1.2402724099999993 54.934866257 7.203
212 1 0.8476108099999999 59.240366257 4.802
213 1 1.0439416099999992 61.393116256999996 8.4035
214 1 1.0439416099999992 61.393116256999996 6.0025
215 1 1.0439416099999992 57.087616257 6.0025
216 1 1.0439416099999992 57.087616257 8.4035
217 1 1.9635964099999992 59.240366257 12.005
218 1 0.12428680999999919 54.934866257 9.604
219 1 1.2402724099999993 54.934866257 12.005
220 1 0.8476108099999999 59.240366257 9.604
221 1 1.0439416099999992 61.393116256999996 13.2055
222 1 1.0439416099999992 61.393116256999996 10.8045
223 1 1.0439416099999992 57.087616257 10.8045
224 1 1.0439416099999992 57.087616257 13.2055
225 1 1.9635964099999992 59.240366257 16.807
226 1 0.12428680999999919 54.934866257 14.406
227 1 1.2402724099999993 54.934866257 16.807
228 1 0.8476108099999999 59.240366257 14.406
229 1 1.0439416099999992 61.393116256999996 18.0075
230 1 1.0439416099999992 61.393116256999996 15.6065
231 1 1.0439416099999992 57.087616257 15.6065
232 1 1.0439416099999992 57.087616257 18.0075
233 1 1.9635964099999992 67.851366257 2.401
234 1 0.12428680999999919 63.54586625700001 0.0
235 1 1.2402724099999993 63.54586625700001 2.401
236 1 0.8476108099999999 67.851366257 0.0
237 1 1.0439416099999992 70.00411625699999 3.6015
238 1 1.0439416099999992 70.00411625699999 1.2005
239 1 1.0439416099999992 65.698616257 1.2005
240 1 1.0439416099999992 65.698616257 3.6015
241 1 1.9635964099999992 67.851366257 7.203
242 1 0.12428680999999919 63.54586625700001 4.802
243 1 1.2402724099999993 63.54586625700001 7.203
244 1 0.8476108099999999 67.851366257 4.802
245 1 1.0439416099999992 70.00411625699999 8.4035
246 1 1.0439416099999992 70.00411625699999 6.0025
247 1 1.0439416099999992 65.698616257 6.0025
248 1 1.0439416099999992 65.698616257 8.4035
249 1 1.9635964099999992 67.851366257 12.005
250 1 0.12428680999999919 63.54586625700001 9.604
251 1 1.2402724099999993 63.54586625700001 12.005
252 1 0.8476108099999999 67.851366257 9.604
253 1 1.0439416099999992 70.00411625699999 13.2055
254 1 1.0439416099999992 70.00411625699999 10.8045
255 1 1.0439416099999992 65.698616257 10.8045
256 1 1.0439416099999992 65.698616257 13.2055
257 1 1.9635964099999992 67.851366257 16.807
258 1 0.12428680999999919 63.54586625700001 14.406
259 1 1.2402724099999993 63.54586625700001 16.807
260 1 0.8476108099999999 67.851366257 14.406
261 1 1.0439416099999992 70.00411625699999 18.0075
262 1 1.0439416099999992 70.00411625699999 15.6065
263 1 1.0439416099999992 65.698616257 15.6065
264 1 1.0439416099999992 65.698616257 18.0075
265 1 1.9635964099999992 76.462366257 2.401
266 1 0.12428680999999919 72.15686625699999 0.0
267 1 1.2402724099999993 72.15686625699999 2.401
268 1 0.8476108099999999 76.462366257 0.0
269 1 1.0439416099999992 78.615116257 3.6015
270 1 1.0439416099999992 78.615116257 1.2005
271 1 1.0439416099999992 74.309616257 1.2005
272 1 1.0439416099999992 74.309616257 3.6015
273 1 1.9635964099999992 76.462366257 7.203
274 1 0.12428680999999919 72.15686625699999 4.802
275 1 1.2402724099999993 72.15686625699999 7.203
276 1 0.8476108099999999 76.462366257 4.802
277 1 1.0439416099999992 78.615116257 8.4035
278 1 1.0439416099999992 78.615116257 6.0025
279 1 1.0439416099999992 74.309616257 6.0025
280 1 1.0439416099999992 74.309616257 8.4035
281 1 1.9635964099999992 76.462366257 12.005
282 1 0.12428680999999919 72.15686625699999 9.604
283 1 1.2402724099999993 72.15686625699999 12.005
284 1 0.8476108099999999 76.462366257 9.604
285 1 1.0439416099999992 78.615116257 13.2055
286 1 1.0439416099999992 78.615116257 10.8045
287 1 1.0439416099999992 74.309616257 10.8045
288 1 1.0439416099999992 74.309616257 13.2055
289 1 1.9635964099999992 76.462366257 16.807
290 1 0.12428680999999919 72.15686625699999 14.406
291 1 1.2402724099999993 72.15686625699999 16.807
292 1 0.8476108099999999 76.462366257 14.406
293 1 1.0439416099999992 78.615116257 18.0075
294 1 1.0439416099999992 78.615116257 15.6065
295 1 1.0439416099999992 74.309616257 15.6065
296 1 1.0439416099999992 74.309616257 18.0075
297 1 1.9635964099999992 85.07336625699999 2.401
298 1 0.12428680999999919 80.767866257 0.0
299 1 1.2402724099999993 80.767866257 2.401
300 1 0.8476108099999999 85.07336625699999 0.0
301 1 1.0439416099999992 87.226116257 3.6015
302 1 1.0439416099999992 87.226116257 1.2005
303 1 1.0439416099999992 82.92061625699999 1.2005
304 1 1.0439416099999992 82.92061625699999 3.6015
305 1 1.9635964099999992 85.07336625699999 7.203
306 1 0.12428680999999919 80.767866257 4.802
307 1 1.2402724099999993 80.767866257 7.203
308 1 0.8476108099999999 85.07336625699999 4.802
309 1 1.0439416099999992 87.226116257 8.4035
310 1 1.0439416099999992 87.226116257 6.0025
311 1 1.0439416099999992 82.92061625699999 6.0025
312 1 1.0439416099999992 82.92061625699999 8.4035
313 1 1.9635964099999992 85.07336625699999 12.005
314 1 0.12428680999999919 80.767866257 9.604
315 1 1.2402724099999993 80.767866257 12.005
316 1 0.8476108099999999 85.07336625699999 9.604
317 1 1.0439416099999992 87.226116257 13.2055
318 1 1.0439416099999992 87.226116257 10.8045
319 1 1.0439416099999992 82.92061625699999 10.8045
320 1 1.0439416099999992 82.92061625699999 13.2055
321 1 1.9635964099999992 85.07336625699999 16.807
322 1 0.12428680999999919 80.767866257 14.406
323 1 1.2402724099999993 80.767866257 16.807
324 1 0.8476108099999999 85.07336625699999 14.406
325 1 1.0439416099999992 87.226116257 18.0075
326 1 1.0439416099999992 87.226116257 15.6065
327 1 1.0439416099999992 82.92061625699999 15.6065
328 1 1.0439416099999992 82.92061625699999 18.0075
329 1 1.9635964099999992 93.684366257 2.401
330 1 0.12428680999999919 89.378866257 0.0
331 1 1.2402724099999993 89.378866257 2.401
332 1 0.8476108099999999 93.684366257 0.0
333 1 1.0439416099999992 95.83711625699999 3.6015
334 1 1.0439416099999992 95.83711625699999 1.2005
335 1 1.0439416099999992 91.531616257 1.2005
336 1 1.0439416099999992 91.531616257 3.6015
337 1 1.9635964099999992 93.684366257 7.203
338 1 0.12428680999999919 89.378866257 4.802
339 1 1.2402724099999993 89.378866257 7.203
340 1 0.8476108099999999 93.684366257 4.802
341 1 1.0439416099999992 95.83711625699999 8.4035
342 1 1.0439416099999992 95.83711625699999 6.0025
343 1 1.0439416099999992 91.531616257 6.0025
344 1 1.0439416099999992 91.531616257 8.4035
345 1 1.9635964099999992 93.684366257 12.005
346 1 0.12428680999999919 89.378866257 9.604
347 1 1.2402724099999993 89.378866257 12.005
348 1 0.8476108099999999 93.684366257 9.604
349 1 1.0439416099999992 95.83711625699999 13.2055
350 1 1.0439416099999992 95.83711625699999 10.8045
351 1 1.0439416099999992 91.531616257 10.8045
352 1 1.0439416099999992 91.531616257 13.2055
353 1 1.9635964099999992 93.684366257 16.807
354 1 0.12428680999999919 89.378866257 14.406
355 1 1.2402724099999993 89.378866257 16.807
356 1 0.8476108099999999 93.684366257 14.406
357 1 1.0439416099999992 95.83711625699999 18.0075
358 1 1.0439416099999992 95.83711625699999 15.6065
359 1 1.0439416099999992 91.531616257 15.6065
360 1 1.0439416099999992 91.531616257 18.0075
361 1 1.9635964099999992 102.295366257 2.401
362 1 0.12428680999999919 97.98986625699999 0.0
363 1 1.2402724099999993 97.98986625699999 2.401
364 1 0.8476108099999999 102.295366257 0.0
365 1 1.0439416099999992 104.448116257 3.6015
366 1 1.0439416099999992 104.448116257 1.2005
367 1 1.0439416099999992 100.142616257 1.2005
368 1 1.0439416099999992 100.142616257 3.6015
369 1 1.9635964099999992 102.295366257 7.203
370 1 0.12428680999999919 97.98986625699999 4.802
371 1 1.2402724099999993 97.98986625699999 7.203
372 1 0.8476108099999999 102.295366257 4.802
373 1 1.0439416099999992 104.448116257 8.4035
374 1 1.0439416099999992 104.448116257 6.0025
375 1 1.0439416099999992 100.142616257 6.0025
376 1 1.0439416099999992 100.142616257 8.4035
377 1 1.9635964099999992 102.295366257 12.005
378 1 0.12428680999999919 97.98986625699999 9.604
379 1 1.2402724099999993 97.98986625699999 12.005
380 1 0.8476108099999999 102.295366257 9.604
381 1 1.0439416099999992 104.448116257 13.2055
382 1 1.0439416099999992 104.448116257 10.8045
383 1 1.0439416099999992 100.142616257 10.8045
384 1 1.0439416099999992 100.142616257 13.2055
385 1 1.9635964099999992 102.295366257 16.807
386 1 0.12428680999999919 97.98986625699999 14.406
387 1 1.2402724099999993 97.98986625699999 16.807
388 1 0.8476108099999999 102.295366257 14.406
389 1 1.0439416099999992 104.448116257 18.0075
390 1 1.0439416099999992 104.448116257 15.6065
391 1 1.0439416099999992 100.142616257 15.6065
392 1 1.0439416099999992 100.142616257 18.0075
393 1 1.9635964099999992 110.906366257 2.401
394 1 0.12428680999999919 106.60086625699999 0.0
395 1 1.2402724099999993 106.60086625699999 2.401
396 1 0.8476108099999999 110.906366257 0.0
397 1 1.0439416099999992 113.059116257 3.6015
398 1 1.0439416099999992 113.059116257 1.2005
399 1 1.0439416099999992 108.75361625699999 1.2005
400 1 1.0439416099999992 108.75361625699999 3.6015
401 1 1.9635964099999992 110.906366257 7.203
402 1 0.12428680999999919 106.60086625699999 4.802
403 1 1.2402724099999993 106.60086625699999 7.203
404 1 0.8476108099999999 110.906366257 4.802
405 1 1.0439416099999992 113.059116257 8.4035
406 1 1.0439416099999992 113.059116257 6.0025
407 1 1.0439416099999992 108.75361625699999 6.0025
408 1 1.0439416099999992 108.75361625699999 8.4035
409 1 1.9635964099999992 110.906366257 12.005
410 1 0.12428680999999919 106.60086625699999 9.604
411 1 1.2402724099999993 106.60086625699999 12.005
412 1 0.8476108099999999 110.906366257 9.604
413 1 1.0439416099999992 113.059116257 13.2055
414 1 1.0439416099999992 113.059116257 10.8045
415 1 1.0439416099999992 108.75361625699999 10.8045
416 1 1.0439416099999992 108.75361625699999 13.2055
417 1 1.9635964099999992 110.906366257 16.807
418 1 0.12428680999999919 106.60086625699999 14.406
419 1 1.2402724099999993 106.60086625699999 16.807
420 1 0.8476108099999999 110.906366257 14.406
421 1 1.0439416099999992 113.059116257 18.0075
422 1 1.0439416099999992 113.059116257 15.6065
423 1 1.0439416099999992 108.75361625699999 15.6065
424 1 1.0439416099999992 108.75361625699999 18.0075
425 1 1.9635964099999992 119.51736625699999 2.401
426 1 0.12428680999999919 115.211866257 0.0
427 1 1.2402724099999993 115.211866257 2.401
428 1 0.8476108099999999 119.51736625699999 0.0
429 1 1.0439416099999992 121.67011625699999 3.6015
430 1 1.0439416099999992 121.67011625699999 1.2005
431 1 1.0439416099999992 117.364616257 1.2005
432 1 1.0439416099999992 117.364616257 3.6015
433 1 1.9635964099999992 119.51736625699999 7.203
434 1 0.12428680999999919 115.211866257 4.802
435 1 1.2402724099999993 115.211866257 7.203
436 1 0.8476108099999999 119.51736625699999 4.802
437 1 1.0439416099999992 121.67011625699999 8.4035
438 1 1.0439416099999992 121.67011625699999 6.0025
439 1 1.0439416099999992 117.364616257 6.0025
440 1 1.0439416099999992 117.364616257 8.4035
441 1 1.9635964099999992 119.51736625699999 12.005
442 1 0.12428680999999919 115.211866257 9.604
443 1 1.2402724099999993 115.211866257 12.005
444 1 0.8476108099999999 119.51736625699999 9.604
445 1 1.0439416099999992 121.67011625699999 13.2055
446 1 1.0439416099999992 121.67011625699999 10.8045
447 1 1.0439416099999992 117.364616257 10.8045
448 1 1.0439416099999992 117.364616257 13.2055
449 1 1.9635964099999992 119.51736625699999 16.807
450 1 0.12428680999999919 115.211866257 14.406
451 1 1.2402724099999993 115.211866257 16.807
452 1 0.8476108099999999 119.51736625699999 14.406
453 1 1.0439416099999992 121.67011625699999 18.0075
454 1 1.0439416099999992 121.67011625699999 15.6065
455 1 1.0439416099999992 117.364616257 15.6065
456 1 1.0439416099999992 117.364616257 18.0075
457 1 1.9635964099999992 128.12836625699998 2.401
458 1 0.12428680999999919 123.82286625699999 0.0
459 1 1.2402724099999993 123.82286625699999 2.401
460 1 0.8476108099999999 128.12836625699998 0.0
461 1 1.0439416099999992 130.281116257 3.6015
462 1 1.0439416099999992 130.281116257 1.2005
463 1 1.0439416099999992 125.97561625699998 1.2005
464 1 1.0439416099999992 125.97561625699998 3.6015
465 1 1.9635964099999992 128.12836625699998 7.203
466 1 0.12428680999999919 123.82286625699999 4.802
467 1 1.2402724099999993 123.82286625699999 7.203
468 1 0.8476108099999999 128.12836625699998 4.802
469 1 1.0439416099999992 130.281116257 8.4035
470 1 1.0439416099999992 130.281116257 6.0025
471 1 1.0439416099999992 125.97561625699998 6.0025
472 1 1.0439416099999992 125.97561625699998 8.4035
473 1 1.9635964099999992 128.12836625699998 12.005
474 1 0.12428680999999919 123.82286625699999 9.604
475 1 1.2402724099999993 123.82286625699999 12.005
476 1 0.8476108099999999 128.12836625699998 9.604
477 1 1.0439416099999992 130.281116257 13.2055
478 1 1.0439416099999992 130.281116257 10.8045
479 1 1.0439416099999992 125.97561625699998 10.8045
480 1 1.0439416099999992 125.97561625699998 13.2055
481 1 1.9635964099999992 128.12836625699998 16.807
482 1 0.12428680999999919 123.82286625699999 14.406
483 1 1.2402724099999993 123.82286625699999 16.807
484 1 0.8476108099999999 128.12836625699998 14.406
485 1 1.0439416099999992 130.281116257 18.0075
486 1 1.0439416099999992 130.281116257 15.6065
487 1 1.0439416099999992 125.97561625699998 15.6065
488 1 1.0439416099999992 125.97561625699998 18.0075
489 1 1.9635964099999992 136.739366257 2.401
490 1 0.12428680999999919 132.433866257 0.0
491 1 1.2402724099999993 132.433866257 2.401
492 1 0.8476108099999999 136.739366257 0.0
493 1 1.0439416099999992 138.892116257 3.6015
494 1 1.0439416099999992 138.892116257 1.2005
495 1 1.0439416099999992 134.586616257 1.2005
496 1 1.0439416099999992 134.586616257 3.6015
497 1 1.9635964099999992 136.739366257 7.203
498 1 0.12428680999999919 132.433866257 4.802
499 1 1.2402724099999993 132.433866257 7.203
500 1 0.8476108099999999 136.739366257 4.802
501 1 1.0439416099999992 138.892116257 8.4035
502 1 1.0439416099999992 138.892116257 6.0025
503 1 1.0439416099999992 134.586616257 6.0025
504 1 1.0439416099999992 134.586616257 8.4035
505 1 1.9635964099999992 136.739366257 12.005
506 1 0.12428680999999919 132.433866257 9.604
507 1 1.2402724099999993 132.433866257 12.005
508 1 0.8476108099999999 136.739366257 9.604
509 1 1.0439416099999992 138.892116257 13.2055
510 1 1.0439416099999992 138.892116257 10.8045
511 1 1.0439416099999992 134.586616257 10.8045
512 1 1.0439416099999992 134.586616257 13.2055
513 1 1.9635964099999992 136.739366257 16.807
514 1 0.12428680999999919 132.433866257 14.406
515 1 1.2402724099999993 132.433866257 16.807
516 1 0.8476108099999999 136.739366257 14.406
517 1 1.0439416099999992 138.892116257 18.0075
518 1 1.0439416099999992 138.892116257 15.6065
519 1 1.0439416099999992 134.586616257 15.6065
520 1 1.0439416099999992 134.586616257 18.0075
521 1 1.9635964099999992 145.350366257 2.401
522 1 0.12428680999999919 141.044866257 0.0
523 1 1.2402724099999993 141.044866257 2.401
524 1 0.8476108099999999 145.350366257 0.0
525 1 1.0439416099999992 147.503116257 3.6015
526 1 1.0439416099999992 147.503116257 1.2005
527 1 1.0439416099999992 143.197616257 1.2005
528 1 1.0439416099999992 143.197616257 3.6015
529 1 1.9635964099999992 145.350366257 7.203
530 1 0.12428680999999919 141.044866257 4.802
531 1 1.2402724099999993 141.044866257 7.203
532 1 0.8476108099999999 145.350366257 4.802
533 1 1.0439416099999992 147.503116257 8.4035
534 1 1.0439416099999992 147.503116257 6.0025
535 1 1.0439416099999992 143.197616257 6.0025
536 1 1.0439416099999992 143.197616257 8.4035
537 1 1.9635964099999992 145.350366257 12.005
538 1 0.12428680999999919 141.044866257 9.604
539 1 1.2402724099999993 141.044866257 12.005
540 1 0.8476108099999999 145.350366257 9.604
541 1 1.0439416099999992 147.503116257 13.2055
542 1 1.0439416099999992 147.503116257 10.8045
543 1 1.0439416099999992 143.197616257 10.8045
544 1 1.0439416099999992 143.197616257 13.2055
545 1 1.9635964099999992 145.350366257 16.807
546 1 0.12428680999999919 141.044866257 14.406
547 1 1.2402724099999993 141.044866257 16.807
548 1 0.8476108099999999 145.350366257 14.406
549 1 1.0439416099999992 147.503116257 18.0075
550 1 1.0439416099999992 147.503116257 15.6065
551 1 1.0439416099999992 143.197616257 15.6065
552 1 1.0439416099999992 143.197616257 18.0075
553 1 1.9635964099999992 153.961366257 2.401
554 1 0.12428680999999919 149.65586625699999 0.0
555 1 1.2402724099999993 149.65586625699999 2.401
556 1 0.8476108099999999 153.961366257 0.0
557 1 1.0439416099999992 156.114116257 3.6015
558 1 1.0439416099999992 156.114116257 1.2005
559 1 1.0439416099999992 151.80861625699998 1.2005
560 1 1.0439416099999992 151.80861625699998 3.6015
561 1 1.9635964099999992 153.961366257 7.203
562 1 0.12428680999999919 149.65586625699999 4.802
563 1 1.2402724099999993 149.65586625699999 7.203
564 1 0.8476108099999999 153.961366257 4.802
565 1 1.0439416099999992 156.114116257 8.4035
566 1 1.0439416099999992 156.114116257 6.0025
567 1 1.0439416099999992 151.80861625699998 6.0025
568 1 1.0439416099999992 151.80861625699998 8.4035
569 1 1.9635964099999992 153.961366257 12.005
570 1 0.12428680999999919 149.65586625699999 9.604
571 1 1.2402724099999993 149.65586625699999 12.005
572 1 0.8476108099999999 153.961366257 9.604
573 1 1.0439416099999992 156.114116257 13.2055
574 1 1.0439416099999992 156.114116257 10.8045
575 1 1.0439416099999992 151.80861625699998 10.8045
576 1 1.0439416099999992 151.80861625699998 13.2055
577 1 1.9635964099999992 153.961366257 16.807
578 1 0.12428680999999919 149.65586625699999 14.406
579 1 1.2402724099999993 149.65586625699999 16.807
580 1 0.8476108099999999 153.961366257 14.406
581 1 1.0439416099999992 156.114116257 18.0075
582 1 1.0439416099999992 156.114116257 15.6065
583 1 1.0439416099999992 151.80861625699998 15.6065
584 1 1.0439416099999992 151.80861625699998 18.0075
585 1 1.9635964099999992 162.572366257 2.401
586 1 0.12428680999999919 158.266866257 0.0
587 1 1.2402724099999993 158.266866257 2.401
588 1 0.8476108099999999 162.572366257 0.0
589 1 1.0439416099999992 164.725116257 3.6015
590 1 1.0439416099999992 164.725116257 1.2005
591 1 1.0439416099999992 160.419616257 1.2005
592 1 1.0439416099999992 160.419616257 3.6015
593 1 1.9635964099999992 162.572366257 7.203
594 1 0.12428680999999919 158.266866257 4.802
595 1 1.2402724099999993 158.266866257 7.203
596 1 0.8476108099999999 162.572366257 4.802
597 1 1.0439416099999992 164.725116257 8.4035
598 1 1.0439416099999992 164.725116257 6.0025
599 1 1.0439416099999992 160.419616257 6.0025
600 1 1.0439416099999992 160.419616257 8.4035
601 1 1.9635964099999992 162.572366257 12.005
602 1 0.12428680999999919 158.266866257 9.604
603 1 1.2402724099999993 158.266866257 12.005
604 1 0.8476108099999999 162.572366257 9.604
605 1 1.0439416099999992 164.725116257 13.2055
606 1 1.0439416099999992 164.725116257 10.8045
607 1 1.0439416099999992 160.419616257 10.8045
608 1 1.0439416099999992 160.419616257 13.2055
609 1 1.9635964099999992 162.572366257 16.807
610 1 0.12428680999999919 158.266866257 14.406
611 1 1.2402724099999993 158.266866257 16.807
612 1 0.8476108099999999 162.572366257 14.406
613 1 1.0439416099999992 164.725116257 18.0075
614 1 1.0439416099999992 164.725116257 15.6065
615 1 1.0439416099999992 160.419616257 15.6065
616 1 1.0439416099999992 160.419616257 18.0075
617 1 1.9635964099999992 171.183366257 2.401
618 1 0.12428680999999919 166.877866257 0.0
619 1 1.2402724099999993 166.877866257 2.401
620 1 0.8476108099999999 171.183366257 0.0
621 1 1.0439416099999992 169.030616257 1.2005
622 1 1.0439416099999992 169.030616257 3.6015
623 1 1.9635964099999992 171.183366257 7.203
624 1 0.12428680999999919 166.877866257 4.802
625 1 1.2402724099999993 166.877866257 7.203
626 1 0.8476108099999999 171.183366257 4.802
627 1 1.0439416099999992 169.030616257 6.0025
628 1 1.0439416099999992 169.030616257 8.4035
629 1 1.9635964099999992 171.183366257 12.005
630 1 0.12428680999999919 166.877866257 9.604
631 1 1.2402724099999993 166.877866257 12.005
632 1 0.8476108099999999 171.183366257 9.604
633 1 1.0439416099999992 169.030616257 10.8045