test_interface/test_interface_cell_2

22304 atoms
2 atom types
-3.608224830031759e-16 77.33873310999999 xlo xhi
-3.608224830031759e-16 172.50527526399998 ylo yhi
19.458 42.095388 zlo zhi
0 0 0 xy xz yz

Atoms

1 1 17.854705965 1.4344537869999998 22.287673499999997
2 1 1.9033686509999992 2.4067407019999996 20.401209408
3 1 1.5100297479999991 4.8350044169999995 20.283313892
4 1 1.0692616469999994 3.804722675999998 24.291999152
5 1 1.0839426559999996 5.960643127999998 22.692803513999998
6 1 2.500239356 3.801969840999999 22.287662180999998
7 1 3.916520157999999 1.6432899999999995 21.882515189
8 1 3.9312170650000002 3.799217005 20.283325209999997
9 1 3.49044522 2.768941817999999 24.29201613
10 1 4.344933559999999 0.4621974789999994 24.174114953999997
11 1 6.021188603000001 2.197913958999999 20.806367718999997
12 1 5.0395731139999995 4.268439541 22.692820492
13 1 6.189647152999999 4.774238534999999 20.401215068
14 1 6.091879551 2.3632285289999997 23.768956643
15 1 8.034341358 1.4344661739999998 22.287667840999998
16 1 7.6410061979999995 3.8627233359999993 22.169766664999997
17 1 8.448073498 5.749266617999999 20.519110584
18 1 7.214933755999999 4.988380987 24.579256287
19 1 9.976794754 0.5056841589999994 20.806362059999998
20 1 8.63121331 2.829698228999999 24.174114953999997
21 1 10.047508762 0.6710220249999992 23.768979281
22 1 10.062192267 2.8269483109999998 22.169772324
23 1 10.869262062999999 4.7134821229999995 20.519116244
24 1 11.723729514999997 2.406734867999999 20.401220727
25 1 12.578235000000001 0.09999999999999964 20.283319550999998
26 1 12.152163804999999 1.2256452639999997 22.692814833
27 1 11.170532418999999 3.2961642939999996 24.579261947
28 1 12.320621108 3.8019669239999994 22.287667840999998
29 1 13.470709796 4.307769553999999 19.996073735
30 1 12.91749306 5.197198979 24.174114953999997
31 1 14.165332457 0.4622040329999999 24.174120614
32 1 13.77199605 2.8904582779999997 24.056225097
33 1 14.579048701 4.776982619999999 22.405569016999998
34 1 14.593728462 6.932915458999999 20.806367718999997
35 1 16.010027658 4.774232701 20.401226385999998
36 1 17.426304717 2.615559413999999 19.996085052999998
37 1 16.193180871000003 1.8546803359999995 24.056236415999997
38 1 17.00023477 3.7412075949999997 22.405574675999997
39 2 1.2794367629999996 0.9483332849999995 23.230888567999997
40 2 3.72102106 6.655603478999999 21.344441454
41 2 14.789225064999998 1.9205961459999994 21.344452772999997
42 1 0.2622077479999998 1.9181954169999988 25.942660892
43 1 1.2524173559999996 0.8851608409999994 27.947009181
44 1 2.683395064999999 0.8824080049999994 25.942672209999998
45 1 3.791751114 1.3516305409999996 28.352167492
46 1 4.941825153 1.8574295349999987 26.060562068
47 1 6.393184197999998 0.9459143359999995 27.829113664999998
48 1 7.200251497999998 2.8324576180000003 26.178457584
49 1 5.9671117559999995 2.0715719869999996 30.238603286999997
50 1 9.621440063 1.7966731229999988 26.178463244
51 1 9.922710419 0.3793552939999989 30.238608946999996
52 1 11.072799108 0.8851579239999987 27.947014840999998
53 1 12.222887796 1.3909605539999994 25.655420735
54 1 11.66967106 2.2803899789999997 29.833461954
55 1 13.331226701 1.8601736199999994 28.064916016999998
56 1 13.345906462 4.016106459 26.465714718999998
57 1 14.762205658000001 1.8574237009999992 26.060573385999998
58 1 15.752412770000001 0.824398594999999 28.064921675999997
59 2 2.47319906 3.738794479 27.003788454
60 1 12.098084461999997 1.0992974589999998 32.125061719
61 2 1.2253770599999996 0.8219854789999994 32.663135454
62 1 15.359058964999997 10.904456786999997 22.287673499999997
63 1 0.6555426549999996 7.141751671999999 20.401209408
64 1 0.10232591899999921 8.031165794 24.579261947
65 1 1.2524146079999996 8.536968423999998 22.287667840999998
66 1 2.4025020479999997 9.042783441000001 19.996068074999997
67 1 1.4208731579999991 11.113292999999999 21.882515189
68 1 1.4355700649999994 13.269220004999998 20.283325209999997
69 1 0.9947982199999998 12.238944817999997 24.29201613
70 1 1.8492865599999995 9.932200478999999 24.174114953999997
71 1 3.0971100600000003 5.197198979 24.174114953999997
72 1 2.703774899999999 7.625456141 24.056213778
73 1 3.5108409530000007 9.511996507 22.405563357
74 1 3.525541602999999 11.667916959 20.806367718999997
75 1 2.5439261139999996 13.738442540999998 22.692820492
76 1 3.6940001529999993 14.244241534999997 20.401215068
77 1 4.941823652999998 9.509240034999998 20.401215068
78 1 3.596232551 11.833231528999999 23.768956643
79 1 6.3581044559999995 7.350560194999999 19.996068074999997
80 1 5.124963464999999 6.589671646 24.056219438
81 1 5.9320295179999984 8.476212011999998 22.405569016999998
82 1 6.786519105999998 6.169470590999999 22.287662180999998
83 1 5.538694357999999 10.904469173999999 22.287667840999998
84 1 5.1453591979999995 13.332726335999997 22.169766664999997
85 1 5.9524264979999995 15.219269617999998 20.519110584
86 1 4.719286756000001 14.458383986999998 24.579256287
87 1 7.481147754 9.975687159 20.806362059999998
88 1 7.383389809999999 7.564699729 24.174114953999997
89 1 6.13556631 12.299701228999997 24.174114953999997
90 1 8.533473507 8.070521299 21.882520848
91 1 7.551861762 10.141025024999998 23.768979281
92 1 7.566545267 12.296951310999997 22.169772324
93 1 8.373615062999999 14.183485122999997 20.519116244
94 1 10.475924408 7.141748754999999 20.401215068
95 1 9.228082514999999 11.876737868 20.401220727
96 1 10.082588 9.570003 20.283319550999998
97 1 9.641830805 8.539731448999998 24.29202179
98 1 9.656516804999999 10.695648263999999 22.692814833
99 1 8.674885418999999 12.766167293999999 24.579261947
100 1 11.072793864 8.536974977 22.287673499999997
101 1 9.824974108 13.271969924 22.287667840999998
102 1 10.975062795999998 13.777772553999998 19.996073735
103 1 12.48907841 6.378288582999999 21.882520848
104 1 12.503776564999997 8.534218504999998 20.283325209999997
105 1 12.063003472 7.503940400999999 24.29202179
106 1 10.42184606 14.667201978999998 24.174114953999997
107 1 11.669685457000002 9.932207033000001 24.174120614
108 1 11.276349050000002 12.360461277999999 24.056225097
109 1 12.083401701000001 14.246985619999997 22.405569016999998
110 1 12.098081461999998 16.402918459 20.806367718999997
111 1 13.612112974 9.003441040999999 22.692820492
112 1 13.514380658000002 14.244235700999997 20.401226385999998
113 1 14.762206653000002 9.509240034999998 20.401215068
114 1 14.664454948999998 7.098236581999999 23.768962302
115 1 14.930657716999997 12.085562413999998 19.996085052999998
116 1 13.697533871 11.324683335999996 24.056236415999997
117 1 14.504587769999999 13.211210595 22.405574675999997
118 2 1.22537406 16.125606478999998 21.344441454
119 2 4.914782109999999 9.446061756999999 25.117347
120 2 9.851993767 5.683344254999999 23.230888567999997
121 2 12.293578065 11.390599145999996 21.344452772999997
122 1 14.111236964999998 7.987647786999999 27.9470205
123 1 1.1546800479999995 6.125974440999999 25.655415075
124 1 0.17305115799999982 8.196483999999998 27.541862189
125 1 0.1877480649999992 10.352411005 25.942672209999998
126 1 0.6014645599999993 7.015391478999999 29.833461954
127 1 1.8492880599999992 2.2803899789999997 29.833461954
128 1 1.4559528999999998 4.708647140999999 29.715560777999997
129 1 2.2630189529999996 6.5951875069999994 28.064910357
130 1 2.2777196029999995 8.751107958999999 26.465714718999998
131 1 1.2961041139999994 10.821633541 28.352167492
132 1 2.446178153 11.327432534999996 26.060562068
133 1 3.694001652999999 6.592431035 26.060562068
134 1 2.3484105509999997 8.916422528999998 29.428303643
135 1 5.110282455999998 4.433751195 25.655415075
136 1 3.8771414649999993 3.6728626459999996 29.715566437999996
137 1 4.684207517999999 5.559403012 28.064916016999998
138 1 5.538697105999999 3.252661591 27.947009181
139 1 4.290872358 7.987660173999999 27.947014840999998
140 1 3.897537198 10.415917336 27.829113664999998
141 1 4.704604498 12.302460617999998 26.178457584
142 1 3.4714647559999996 11.541574987 30.238603286999997
143 1 6.233325754000001 7.058878159 26.46570906
144 1 6.1355678099999995 4.647890728999999 29.833461954
145 1 4.88774431 9.382892229 29.833461954
146 1 7.285651506999999 5.1537122989999995 27.541867848
147 1 6.304039762 7.224216025 29.428326280999997
148 1 6.318723266999999 9.380142311 27.829119323999997
149 1 7.125793063 11.266676123 26.178463244
150 1 9.228102408 4.2249397549999985 26.060562068
151 1 7.980260514999999 8.959928867999999 26.060567727
152 1 8.834766 6.653194 25.942666551
153 1 8.394008805 5.622922448999998 29.951368789999997
154 1 8.408694805 7.778839263999999 28.352161832999997
155 1 7.4270634189999996 9.849358293999998 30.238608946999996
156 1 9.824971864 5.620165977 27.9470205
157 1 8.577152108 10.355160924 27.947014840999998
158 1 9.727240796 10.860963553999998 25.655420735
159 1 11.24125641 3.461479583 27.541867848
160 1 11.255954564999998 5.617409504999999 25.942672209999998
161 1 10.815181472 4.587131401 29.951368789999997
162 1 9.174024059999999 11.750392979 29.833461954
163 1 10.421863456999999 7.015398032999999 29.833467614
164 1 10.02852705 9.443652277999998 29.715572097
165 1 10.835579701000002 11.33017662 28.064916016999998
166 1 10.850259461999999 13.486109458999998 26.465714718999998
167 1 12.364290974000001 6.086632040999999 28.352167492
168 1 12.266558658 11.327426700999997 26.060573385999998
169 1 13.514384653000002 6.592431035 26.060562068
170 1 13.416632948999998 4.181427581999999 29.428309302
171 1 13.682835716999998 9.168753414000001 25.655432053
172 1 12.449711871 8.407874335999999 29.715583415999998
173 1 13.25676577 10.294401595 28.064921675999997
174 2 3.6669601099999998 6.529252756999999 30.776694
175 2 8.604171767 2.766535254999998 28.890235567999998
176 2 11.045756065 8.473790145999999 27.003799772999997
177 1 12.863414964999999 5.0708387870000005 33.6063675
178 1 0.20813089999999956 1.7918381409999995 35.374907778
179 1 1.0151969529999993 3.678378506999999 33.724257357
180 1 1.0298976029999993 5.834298958999999 32.125061719
181 1 1.1983561529999998 8.410623535 31.719909068
182 1 2.4461796529999997 3.675622034999999 31.719909068
183 1 1.1005885509999995 5.999613528999999 35.087650642999996
184 1 3.862460455999999 1.5169421949999995 31.314762074999997
185 1 2.629319465 0.7560536459999989 35.374913438
186 1 3.436385518 2.642594011999999 33.724263017
187 1 4.290875106 0.3358525909999992 33.606356180999995
188 1 3.0430503580000003 5.070851173999999 33.606361840999995
189 1 2.649715197999999 7.499108336 33.488460665
190 1 3.456782497999999 9.385651618 31.837804583999997
191 1 2.2236427559999994 8.624765987 35.897950287
192 1 4.985503754 4.142069158999999 32.12505606
193 1 4.88774581 1.7310817289999987 35.492808954
194 1 3.6399223099999993 6.466083229 35.492808954
195 1 6.037829507 2.2369032989999997 33.201214848
196 1 5.056217761999999 4.307407024999999 35.087673281
197 1 5.070901267 6.463333310999999 33.488466324
198 1 5.877971062999999 8.349867123 31.837810243999996
199 1 7.9802804080000005 1.3081307549999996 31.719909068
200 1 6.732438515 6.043119867999999 31.719914727
201 1 7.586944000000001 3.7363849999999994 31.602013551
202 1 7.146186804999999 2.706113448999999 35.61071579
203 1 7.160872804999999 4.862030263999999 34.011508833
204 1 6.1792414189999985 6.932549294 35.897955947
205 1 8.577149863999999 2.7033569769999994 33.6063675
206 1 7.329330107999999 7.438351924 33.606361840999995
207 1 8.479418796 7.944154554 31.314767734999997
208 1 9.993434409999999 0.5446705829999994 33.201214848
209 1 10.008132565 2.7006005049999997 31.602019209999998
210 1 9.567359472 1.670322400999999 35.61071579
211 1 7.92620206 8.833583979 35.492808954
212 1 9.174041457 4.0985890330000005 35.492814614
213 1 8.78070505 6.5268432779999985 35.374919096999996
214 1 9.587757701 8.413367619999999 33.724263017
215 1 9.602437462 10.569300459 32.125061719
216 1 11.116468974000002 3.169823040999998 34.011514491999996
217 1 11.018736658 8.410617701 31.719920386
218 1 12.266562653 3.675622034999999 31.719909068
219 1 12.168810949 1.2646185819999998 35.087656302
220 1 12.435013716999999 6.251944414 31.314779053
221 1 11.201889871 5.491065335999999 35.374930416
222 1 12.00894377 7.3775925949999985 33.724268675999994
223 2 2.4191381099999996 3.6124437569999985 36.436041
224 2 9.797934065 5.556981145999999 32.663146772999994
225 1 11.615592965 2.154029787 39.2657145
226 1 1.1983576529999995 0.7588130349999993 37.379256068000004
227 1 1.7952283579999992 2.1540421739999998 39.265708841
228 1 1.4018931979999998 4.582299335999999 39.147807665
229 1 2.2089604979999997 6.468842617999999 37.497151583999994
230 1 0.9758207559999992 5.707956987 41.557297287
231 1 3.7376817539999987 1.2252601589999994 37.78440306
232 1 2.39210031 3.549274228999999 41.152155953999994
233 1 3.808395762 1.3905980249999992 40.747020281
234 1 3.823079266999999 3.5465243109999998 39.147813324
235 1 4.630149062999999 5.4330581229999995 37.49715724399999
236 1 5.484616515000001 3.1263108679999982 37.379261727
237 1 6.339122 0.8195759999999987 37.261360550999996
238 1 5.913050804999999 1.9452212639999997 39.670855833
239 1 4.931419418999999 4.0157402939999995 41.557302947
240 1 6.0815081079999995 4.521542923999999 39.265708841
241 1 7.231596796 5.027345553999999 36.974114735
242 1 6.67838006 5.916774979 41.152155953999994
243 1 7.926219457 1.181780033 41.15216161399999
244 1 7.532883050000001 3.6100342779999997 41.034266097
245 1 8.339935701 5.496558619999999 39.383610016999995
246 1 8.354615462 7.652491458999999 37.784408719
247 1 9.868646973999999 0.25301404099999925 39.670861492
248 1 9.770914657999999 5.493808701 37.379267385999995
249 1 11.018740653 0.7588130349999993 37.379256068000004
250 1 11.187191717 3.335135413999999 36.974126053
251 1 9.954067871 2.5742563359999995 41.034277415999995
252 1 10.761121769999997 4.460783595 39.383615676
253 2 1.1713161099999994 0.6956347569999997 42.095388
254 2 8.550112065 2.6401721459999994 38.322493773
255 1 12.863411965 20.374459787 22.287673499999997
256 1 0.6014630599999995 14.667201978999998 24.174114953999997
257 1 0.20812789999999914 17.095459141 24.056213778
258 1 1.0151939529999998 18.981999506999998 22.405563357
259 1 1.0298946029999998 21.137919958999998 20.806367718999997
260 1 1.1983531529999993 23.714244535 20.401215068
261 1 2.446176653 18.979243035 20.401215068
262 1 1.100585551 21.303234528999997 23.768956643
263 1 3.8624574559999996 16.820563195 19.996068074999997
264 1 2.6293164650000005 16.059674645999998 24.056219438
265 1 3.4363825180000003 17.946215012 22.405569016999998
266 1 4.290872106 15.639473590999998 22.287662180999998
267 1 3.043047357999999 20.374472173999997 22.287667840999998
268 1 2.6497121979999996 22.802729336 22.169766664999997
269 1 3.4567794979999995 24.689272617999997 20.519110584
270 1 2.223639755999999 23.928386987 24.579256287
271 1 4.9855007539999985 19.445690158999998 20.806362059999998
272 1 4.887742810000001 17.034702729 24.174114953999997
273 1 3.63991931 21.769704229 24.174114953999997
274 1 6.037826507 17.540524298999998 21.882520848
275 1 5.056214762 19.611028025 23.768979281
276 1 5.070898266999999 21.766954311 22.169772324
277 1 5.877968062999999 23.653488123 20.519116244
278 1 7.980277407999999 16.611751755 20.401215068
279 1 6.732435515000001 21.346740867999998 20.401220727
280 1 7.5869409999999995 19.040005999999998 20.283319550999998
281 1 7.146183805 18.009734449 24.29202179
282 1 7.160869804999999 20.165651263999997 22.692814833
283 1 6.179238418999999 22.236170293999997 24.579261947
284 1 8.577146864 18.006977977 22.287673499999997
285 1 7.329327107999999 22.741972924 22.287667840999998
286 1 8.479415796 23.247775553999997 19.996073735
287 1 9.99343141 15.848291582999998 21.882520848
288 1 10.008129564999999 18.004221504999997 20.283325209999997
289 1 9.567356472 16.973943401 24.29202179
290 1 7.92619906 24.137204979 24.174114953999997
291 1 9.174038457 19.402210033 24.174120614
292 1 8.78070205 21.830464277999997 24.056225097
293 1 9.587754701 23.71698862 22.405569016999998
294 1 9.602434462 25.872921458999997 20.806367718999997
295 1 11.116465974000002 18.473444040999997 22.692820492
296 1 11.018733658 23.714238701 20.401226385999998
297 1 12.266559653 18.979243035 20.401215068
298 1 12.168807949 16.568239581999997 23.768962302
299 1 12.435010716999999 21.555565414 19.996085052999998
300 1 11.201886871000001 20.794686335999998 24.056236415999997
301 1 12.008940769999997 22.681213595 22.405574675999997
302 2 2.419135109999999 18.916064756999997 25.117347
303 2 7.356346767 15.153347255 23.230888567999997
304 2 9.797931065 20.860602145999998 21.344452772999997
305 1 11.615589965 17.457650787 27.9470205
306 1 1.198354652999999 16.062434035 26.060562068
307 1 2.6146354560000002 13.903754194999998 25.655415075
308 1 1.3814944649999994 13.142865646 29.715566437999996
309 1 2.188560517999999 15.029406011999999 28.064916016999998
310 1 3.043050105999999 12.722664591000001 27.947009181
311 1 1.7952253579999997 17.457663173999997 27.947014840999998
312 1 1.4018901979999994 19.885920335999998 27.829113664999998
313 1 2.208957498 21.772463618 26.178457584
314 1 0.9758177559999996 21.011577987 30.238603286999997
315 1 3.737678753999999 16.528881158999997 26.46570906
316 1 3.6399208099999996 14.117893728999999 29.833461954
317 1 2.3920973099999996 18.852895228999998 29.833461954
318 1 4.790004507000001 14.623715298999997 27.541867848
319 1 3.8083927619999987 16.694219025 29.428326280999997
320 1 3.8230762669999994 18.850145311 27.829119323999997
321 1 4.630146063 20.736679123 26.178463244
322 1 6.732455408 13.694942754999996 26.060562068
323 1 5.4846135149999995 18.429931867999997 26.060567727
324 1 6.339118999999998 16.123196999999998 25.942666551
325 1 5.898361804999999 15.092925448999999 29.951368789999997
326 1 5.913047805 17.248842263999997 28.352161832999997
327 1 4.931416419 19.319361294 30.238608946999996
328 1 7.329324863999998 15.090168976999998 27.9470205
329 1 6.081505108 19.825163923999998 27.947014840999998
330 1 7.231593796 20.330966554 25.655420735
331 1 8.74560941 12.931482583000001 27.541867848
332 1 8.760307565 15.087412505 25.942672209999998
333 1 8.319534471999999 14.057134400999999 29.951368789999997
334 1 6.678377060000001 21.220395979 29.833461954
335 1 7.926216457000001 16.485401033 29.833467614
336 1 7.532880049999999 18.913655277999997 29.715572097
337 1 8.339932701 20.800179619999998 28.064916016999998
338 1 8.354612462 22.956112459 26.465714718999998
339 1 9.868643974 15.556635041 28.352167492
340 1 9.770911658 20.797429701 26.060573385999998
341 1 11.018737652999997 16.062434035 26.060562068
342 1 10.920985949 13.651430582 29.428309302
343 1 11.187188717 18.638756414 25.655432053
344 1 9.954064871 17.877877335999997 29.715583415999998
345 1 10.761118769999998 19.764404595 28.064921675999997
346 2 1.1713131099999998 15.999255756999997 30.776694
347 2 6.1085247670000005 12.236538255 28.890235567999998
348 2 8.550109065 17.943793145999997 27.003799772999997
349 1 10.367767964999999 14.540841786999998 33.6063675
350 1 1.3668134559999991 10.986945195 31.314762074999997
351 1 0.13367246499999919 10.226056646 35.374913438
352 1 0.9407385179999999 12.112597011999998 33.724263017
353 1 1.7952281059999997 9.805855591 33.606356180999995
354 1 0.5474033579999995 14.540854174 33.606361840999995
355 1 0.15406819799999916 16.969111335999997 33.488460665
356 1 0.9611354979999991 18.855654618 31.837804583999997
357 1 2.489856754 13.612072158999997 32.12505606
358 1 2.3920988100000002 11.201084728999998 35.492808954
359 1 1.1442753099999994 15.936086228999997 35.492808954
360 1 3.5421825069999997 11.706906299 33.201214848
361 1 2.5605707619999993 13.777410024999998 35.087673281
362 1 2.575254267 15.933336310999998 33.488466324
363 1 3.3823240630000004 17.819870122999998 31.837810243999996
364 1 5.484633407999999 10.778133754999999 31.719909068
365 1 4.236791514999998 15.513122868 31.719914727
366 1 5.091296999999999 13.206388 31.602013551
367 1 4.650539804999999 12.176116448999998 35.61071579
368 1 4.665225805 14.332033264 34.011508833
369 1 3.6835944190000003 16.402552294 35.897955947
370 1 6.081502863999999 12.173359977 33.6063675
371 1 4.833683108000001 16.908354923999998 33.606361840999995
372 1 5.983771795999999 17.414157554 31.314767734999997
373 1 7.497787409999999 10.014673583 33.201214848
374 1 7.512485565 12.170603504999999 31.602019209999998
375 1 7.071712472 11.140325400999998 35.61071579
376 1 5.43055506 18.303586979 35.492808954
377 1 6.678394457 13.568592032999998 35.492814614
378 1 6.28505805 15.996846278 35.374919096999996
379 1 7.092110700999999 17.883370619999997 33.724263017
380 1 7.106790461999999 20.039303459 32.125061719
381 1 8.620821974 12.639826041 34.011514491999996
382 1 8.523089658 17.880620700999998 31.719920386
383 1 9.770915653 13.145625034999998 31.719909068
384 1 9.673163949 10.734621581999999 35.087656302
385 1 9.939366717 15.721947413999999 31.314779053
386 1 8.706242870999999 14.961068335999997 35.374930416
387 1 9.51329677 16.847595594999998 33.724268675999994
388 2 4.860702766999999 9.319729254999999 34.549582568
389 2 7.302287065 15.026984146 32.663146772999994
390 1 9.119945965 11.624032787 39.2657145
391 1 0.11899145599999983 8.070136195 36.974109075
392 1 0.5474061059999995 6.889046590999999 39.265703181
393 1 1.2420347539999996 10.695263158999996 37.78440306
394 1 1.1442768099999991 8.284275729 41.152155953999994
395 1 2.2943605069999995 8.790097299 38.860561848
396 1 1.312748762 10.860601024999998 40.747020281
397 1 1.3274322669999998 13.016527311 39.147813324
398 1 2.1345020629999993 14.903061122999997 37.49715724399999
399 1 4.2368114079999994 7.861324754999999 37.379256068000004
400 1 2.988969514999999 12.596313868 37.379261727
401 1 3.8434749999999998 10.289579 37.261360550999996
402 1 3.402717805 9.259307448999998 41.27006279
403 1 3.4174038049999993 11.415224263999999 39.670855833
404 1 2.435772418999999 13.485743293999999 41.557302947
405 1 4.833680864 9.256550977 39.2657145
406 1 3.5858611079999996 13.991545923999997 39.265708841
407 1 4.735949796 14.497348553999998 36.974114735
408 1 6.24996541 7.097864582999999 38.860561848
409 1 6.264663564999999 9.253794504999998 37.26136621
410 1 5.823890472 8.223516400999998 41.27006279
411 1 4.182733059999999 15.386777978999998 41.152155953999994
412 1 5.4305724569999985 10.651783033000001 41.15216161399999
413 1 5.037236049999999 13.080037277999999 41.034266097
414 1 5.844288701 14.966561619999997 39.383610016999995
415 1 5.858968462 17.122494459 37.784408719
416 1 7.372999974000001 9.723017040999999 39.670861492
417 1 7.275267657999999 14.963811700999997 37.379267385999995
418 1 8.523093653 10.228816034999998 37.379256068000004
419 1 8.425341949 7.817812581999999 40.747003301999996
420 1 8.691544717 12.805138413999998 36.974126053
421 1 7.4584208709999995 12.044259336 41.034277415999995
422 1 8.265474769999999 13.930786594999997 39.383615676
423 2 3.612880767 6.402920254999999 40.208929568
424 2 6.0544650650000005 12.110175146 38.322493773
425 1 10.367764965 29.844462787 22.287673499999997
426 1 1.3668104559999996 26.290566194999997 19.996068074999997
427 1 0.13366946499999965 25.529677646 24.056219438
428 1 0.9407355179999994 27.416218011999998 22.405569016999998
429 1 1.7952251059999993 25.109476591 22.287662180999998
430 1 0.547400358 29.844475174 22.287667840999998
431 1 0.15406519799999963 32.272732336000004 22.169766664999997
432 1 0.9611324979999996 34.159275618 20.519110584
433 1 2.4898537539999994 28.915693159000003 20.806362059999998
434 1 2.392095809999999 26.504705728999998 24.174114953999997
435 1 1.1442723099999998 31.239707229 24.174114953999997
436 1 3.542179507 27.010527299 21.882520848
437 1 2.560567762 29.081031024999998 23.768979281
438 1 2.5752512669999996 31.236957311 22.169772324
439 1 3.382321062999999 33.123491123 20.519116244
440 1 5.484630407999999 26.081754755 20.401215068
441 1 4.236788514999999 30.816743868 20.401220727
442 1 5.0912939999999995 28.510009 20.283319550999998
443 1 4.650536805 27.479737449 24.29202179
444 1 4.665222805000001 29.635654264 22.692814833
445 1 3.683591418999999 31.706173294 24.579261947
446 1 6.0814998639999995 27.476980977 22.287673499999997
447 1 4.833680107999999 32.211975924 22.287667840999998
448 1 5.983768796 32.717778554 19.996073735
449 1 7.4977844099999995 25.318294583 21.882520848
450 1 7.512482565000001 27.474224505 20.283325209999997
451 1 7.071709472 26.443946400999998 24.29202179
452 1 5.430552059999998 33.607207979 24.174114953999997
453 1 6.678391456999998 28.872213032999998 24.174120614
454 1 6.285055049999999 31.300467277999996 24.056225097
455 1 7.092107701 33.18699162 22.405569016999998
456 1 7.106787462 35.342924459 20.806367718999997
457 1 8.620818973999999 27.943447041000002 22.692820492
458 1 8.523086658 33.184241701000005 20.401226385999998
459 1 9.770912653 28.449246034999998 20.401215068
460 1 9.673160949 26.038242582 23.768962302
461 1 9.939363716999999 31.025568413999995 19.996085052999998
462 1 8.706239871 30.264689336 24.056236415999997
463 1 9.513293769999999 32.151216595 22.405574675999997
464 2 4.860699767 24.623350255 23.230888567999997
465 2 7.302284065 30.330605146 21.344452772999997
466 1 9.119942965 26.927653787 27.9470205
467 1 0.11898845599999941 23.373757195 25.655415075
468 1 0.547403106 22.192667591 27.947009181
469 1 1.2420317539999992 25.998884159 26.46570906
470 1 1.1442738099999996 23.587896728999997 29.833461954
471 1 2.294357506999999 24.093718299 27.541867848
472 1 1.3127457619999996 26.164222024999997 29.428326280999997
473 1 1.3274292669999994 28.320148311 27.829119323999997
474 1 2.134499063 30.206682122999997 26.178463244
475 1 4.236808408 23.164945754999998 26.060562068
476 1 2.9889665149999995 27.899934868 26.060567727
477 1 3.843472 25.5932 25.942666551
478 1 3.4027148050000005 24.562928448999997 29.951368789999997
479 1 3.4174008049999998 26.718845264 28.352161832999997
480 1 2.4357694189999997 28.789364294 30.238608946999996
481 1 4.833677864 24.560171977 27.9470205
482 1 3.585858108 29.295166924000004 27.947014840999998
483 1 4.735946795999999 29.800969553999995 25.655420735
484 1 6.24996241 22.401485583 27.541867848
485 1 6.264660565 24.557415504999998 25.942672209999998
486 1 5.823887472000001 23.527137400999997 29.951368789999997
487 1 4.182730059999999 30.690398978999998 29.833461954
488 1 5.430569456999999 25.955404032999997 29.833467614
489 1 5.037233049999999 28.383658278000002 29.715572097
490 1 5.844285700999999 30.270182619999996 28.064916016999998
491 1 5.858965461999999 32.426115459 26.465714718999998
492 1 7.372996973999999 25.026638041 28.352167492
493 1 7.275264657999999 30.267432701 26.060573385999998
494 1 8.523090652999999 25.532437034999997 26.060562068
495 1 8.425338949 23.121433581999998 29.428309302
496 1 8.691541717 28.108759413999994 25.655432053
497 1 7.458417871 27.347880336 29.715583415999998
498 1 8.26547177 29.234407594999997 28.064921675999997
499 2 3.6128777669999987 21.706541254999998 28.890235567999998
500 2 6.054462064999999 27.413796146 27.003799772999997
501 1 7.872120964999999 24.010844787 33.6063675
502 1 1.0465355069999998 21.176909299 33.201214848
503 1 0.8866770629999996 27.289873122999996 31.837810243999996
504 1 2.9889864080000006 20.248136754999997 31.719909068
505 1 1.7411445149999993 24.983125868 31.719914727
506 1 2.595649999999999 22.676391 31.602013551
507 1 2.1548928049999994 21.646119448999997 35.61071579
508 1 2.1695788049999996 23.802036263999998 34.011508833
509 1 1.1879474189999994 25.872555293999998 35.897955947
510 1 3.585855863999999 21.643362977 33.6063675
511 1 2.338036107999999 26.378357924 33.606361840999995
512 1 3.4881247959999993 26.884160553999994 31.314767734999997
513 1 5.002140410000001 19.484676583 33.201214848
514 1 5.016838564999999 21.640606504999997 31.602019209999998
515 1 4.576065472 20.610328400999997 35.61071579
516 1 2.9349080599999997 27.773589978999997 35.492808954
517 1 4.182747457 23.038595033 35.492814614
518 1 3.78941105 25.466849277999998 35.374919096999996
519 1 4.596463700999999 27.353373620000003 33.724263017
520 1 4.611143461999999 29.509306458999998 32.125061719
521 1 6.125174973999998 22.109829040999998 34.011514491999996
522 1 6.027442658 27.350623701 31.719920386
523 1 7.2752686529999995 22.615628034999997 31.719909068
524 1 7.177516948999999 20.204624581999997 35.087656302
525 1 7.443719716999999 25.191950413999997 31.314779053
526 1 6.210595871000001 24.431071336 35.374930416
527 1 7.01764977 26.317598595 33.724268675999994
528 2 2.3650557669999994 18.789732254999997 34.549582568
529 2 4.806640065 24.496987146 32.663146772999994
530 1 6.6242989649999995 21.094035787 39.2657145
531 1 1.7411644079999995 17.331327755 37.379256068000004
532 1 0.49332251499999913 22.066316867999998 37.379261727
533 1 1.3478279999999998 19.759581999999998 37.261360550999996
534 1 0.907070805 18.729310449 41.27006279
535 1 0.9217568049999993 20.885227263999997 39.670855833
536 1 2.338033864 18.726553977 39.2657145
537 1 1.0902141079999996 23.461548924 39.265708841
538 1 2.240302796 23.967351553999997 36.974114735
539 1 3.7543184099999998 16.567867582999998 38.860561848
540 1 3.7690165649999994 18.723797504999997 37.26136621
541 1 3.3282434719999987 17.693519401 41.27006279
542 1 1.6870860599999995 24.856780979 41.152155953999994
543 1 2.9349254570000003 20.121786033 41.15216161399999
544 1 2.54158905 22.550040277999997 41.034266097
545 1 3.348641701 24.43656462 39.383610016999995
546 1 3.363321462 26.592497458999997 37.784408719
547 1 4.877352973999999 19.193020040999997 39.670861492
548 1 4.779620658000001 24.433814701 37.379267385999995
549 1 6.027446653 19.698819035 37.379256068000004
550 1 5.929694949 17.287815581999997 40.747003301999996
551 1 6.195897716999999 22.275141414 36.974126053
552 1 4.962773871 21.514262335999998 41.034277415999995
553 1 5.769827770000001 23.400789595 39.383615676
554 2 1.117233767 15.872923255 40.208929568
555 2 3.5588180649999988 21.580178145999998 38.322493773
556 1 7.872117964999999 39.314465787 22.287673499999997